 vasp.5.4.4.18Apr17-6-g9f103f2a35 (build Jun 30 2017 19:19:18) complex          
  
 executed on         MareNostrum4 date 2022.06.19  18:43:20
 running on   48 total cores
 distrk:  each k-point on   48 cores,    1 groups
 distr:  one band on NCORES_PER_BAND=   4 cores,   12 groups


--------------------------------------------------------------------------------------------------------


 INCAR:
 POTCAR:    PAW_PBE Au 04Oct2007                  
 POTCAR:    PAW_PBE C 08Apr2002                   
 POTCAR:    PAW_PBE N 08Apr2002                   
 POTCAR:    PAW_PBE H 15Jun2001                   
 POTCAR:    PAW_PBE Au 04Oct2007                  
  local pseudopotential read in
  partial core-charges read in
  partial kinetic energy density read in
  atomic valenz-charges read in
  non local Contribution for L=           2  read in
    real space projection operators read in
  non local Contribution for L=           2  read in
    real space projection operators read in
  non local Contribution for L=           0  read in
    real space projection operators read in
  non local Contribution for L=           0  read in
    real space projection operators read in
  non local Contribution for L=           1  read in
    real space projection operators read in
  non local Contribution for L=           1  read in
    real space projection operators read in
    PAW grid and wavefunctions read in
 
   number of l-projection  operators is LMAX  =           6
   number of lm-projection operators is LMMAX =          18
 
 POTCAR:    PAW_PBE C 08Apr2002                   
  local pseudopotential read in
  partial core-charges read in
  partial kinetic energy density read in
  atomic valenz-charges read in
  non local Contribution for L=           0  read in
    real space projection operators read in
  non local Contribution for L=           0  read in
    real space projection operators read in
  non local Contribution for L=           1  read in
    real space projection operators read in
  non local Contribution for L=           1  read in
    real space projection operators read in
    PAW grid and wavefunctions read in
 
   number of l-projection  operators is LMAX  =           4
   number of lm-projection operators is LMMAX =           8
 
 POTCAR:    PAW_PBE N 08Apr2002                   
  local pseudopotential read in
  partial core-charges read in
  partial kinetic energy density read in
  atomic valenz-charges read in
  non local Contribution for L=           0  read in
    real space projection operators read in
  non local Contribution for L=           0  read in
    real space projection operators read in
  non local Contribution for L=           1  read in
    real space projection operators read in
  non local Contribution for L=           1  read in
    real space projection operators read in
    PAW grid and wavefunctions read in
 
   number of l-projection  operators is LMAX  =           4
   number of lm-projection operators is LMMAX =           8
 
 POTCAR:    PAW_PBE H 15Jun2001                   
  local pseudopotential read in
  atomic valenz-charges read in
  non local Contribution for L=           0  read in
    real space projection operators read in
  non local Contribution for L=           0  read in
    real space projection operators read in
  non local Contribution for L=           1  read in
    real space projection operators read in
    PAW grid and wavefunctions read in
 
   number of l-projection  operators is LMAX  =           3
   number of lm-projection operators is LMMAX =           5
 
 Optimization of the real space projectors (new method)

 maximal supplied QI-value         = 15.12
 optimisation between [QCUT,QGAM] = [ 10.73, 21.62] = [ 32.26,130.87] Ry 
 Optimized for a Real-space Cutoff    1.42 Angstroem

   l    n(q)    QCUT    max X(q) W(low)/X(q) W(high)/X(q)  e(spline) 
   2      8    10.734    60.898    0.15E-03    0.34E-03    0.26E-06
   2      8    10.734    58.894    0.16E-03    0.35E-03    0.27E-06
   0      9    10.734   109.617    0.92E-04    0.16E-03    0.12E-06
   0      9    10.734    75.026    0.89E-04    0.15E-03    0.11E-06
   1      9    10.734    16.344    0.25E-03    0.88E-04    0.14E-06
   1      9    10.734    10.160    0.20E-03    0.77E-04    0.11E-06
 Optimization of the real space projectors (new method)

 maximal supplied QI-value         = 25.13
 optimisation between [QCUT,QGAM] = [ 10.81, 21.61] = [ 32.71,130.83] Ry 
 Optimized for a Real-space Cutoff    1.23 Angstroem

   l    n(q)    QCUT    max X(q) W(low)/X(q) W(high)/X(q)  e(spline) 
   0      8    10.807   115.676    0.36E-03    0.72E-03    0.24E-06
   0      8    10.807    87.132    0.35E-03    0.71E-03    0.24E-06
   1      7    10.807     4.429    0.19E-03    0.39E-03    0.11E-06
   1      7    10.807     2.733    0.14E-03    0.28E-03    0.13E-06
 Optimization of the real space projectors (new method)

 maximal supplied QI-value         = 25.13
 optimisation between [QCUT,QGAM] = [ 10.81, 21.61] = [ 32.71,130.83] Ry 
 Optimized for a Real-space Cutoff    1.23 Angstroem

   l    n(q)    QCUT    max X(q) W(low)/X(q) W(high)/X(q)  e(spline) 
   0      8    10.807    79.467    0.34E-03    0.68E-03    0.21E-06
   0      8    10.807    66.151    0.34E-03    0.67E-03    0.21E-06
   1      7    10.807    14.030    0.45E-03    0.13E-02    0.11E-05
   1      7    10.807     9.831    0.48E-03    0.13E-02    0.11E-05
 Optimization of the real space projectors (new method)

 maximal supplied QI-value         = 34.20
 optimisation between [QCUT,QGAM] = [ 10.60, 21.55] = [ 31.48,130.03] Ry 
 Optimized for a Real-space Cutoff    1.23 Angstroem

   l    n(q)    QCUT    max X(q) W(low)/X(q) W(high)/X(q)  e(spline) 
   0      8    10.603    19.460    0.37E-03    0.59E-03    0.23E-06
   0      8    10.603    12.209    0.35E-03    0.56E-03    0.22E-06
   1      7    10.603     4.655    0.70E-04    0.28E-03    0.29E-06
  PAW_PBE Au 04Oct2007                  :
 energy of atom  1       EATOM= -926.0867
 kinetic energy error for atom=    0.0057 (will be added to EATOM!!)
  PAW_PBE C 08Apr2002                   :
 energy of atom  2       EATOM= -147.1560
 kinetic energy error for atom=    0.0116 (will be added to EATOM!!)
  PAW_PBE N 08Apr2002                   :
 energy of atom  3       EATOM= -264.5486
 kinetic energy error for atom=    0.0253 (will be added to EATOM!!)
  PAW_PBE H 15Jun2001                   :
 energy of atom  4       EATOM=  -12.4884
 kinetic energy error for atom=    0.0045 (will be added to EATOM!!)
 
 
 POSCAR: Au  C  N  H                             
  positions in direct lattice
  velocities in cartesian coordinates
 exchange correlation table for  LEXCH =        8
   RHO(1)=    0.500       N(1)  =     2000
   RHO(2)=  100.500       N(2)  =     4000
 


--------------------------------------------------------------------------------------------------------


 ion  position               nearest neighbor table
   1  0.000  0.000  0.000- 102 2.94  57 2.94  13 2.94 101 2.94   2 2.94 156 2.94  56 2.94  68 2.94
                           114 2.94
   2  0.083  0.083  0.000-   3 2.94   7 2.94   4 2.94 102 2.94  14 2.94  15 2.94   1 2.94  57 2.94
                            13 2.94
   3  0.167  0.167  0.000-   2 2.94   4 2.94   7 2.94  15 2.94   5 2.94  19 2.94  10 2.94   8 2.94
                            17 2.94
   4  0.250  0.000  0.000-   3 2.94   2 2.94  15 2.94  71 2.94  57 2.94  60 2.94   5 2.94  59 2.94
                            16 2.94
   5  0.333  0.083  0.000-  10 2.94  17 2.94   3 2.94   6 2.94  18 2.94  16 2.94   4 2.94  97 2.94
                            60 2.94
   6  0.417  0.167  0.000-  98 2.94  97 2.94 103 2.94   5 2.94  18 2.94 110 2.94  10 2.94  11 2.94
                            22 2.94
   7  0.000  0.250  0.000-   2 2.94   3 2.94   8 2.94  19 2.94 102 2.94 107 2.94 108 2.94  14 2.94
                           120 2.94
   8  0.083  0.333  0.000-  49 2.94   7 2.94  20 2.94  19 2.94  10 2.94   9 2.94 108 2.94   3 2.94
                            21 2.94
   9  0.167  0.417  0.000-  50 2.94  61 2.94  52 2.94  49 2.94  23 2.94  21 2.94   8 2.94  11 2.94
                            10 2.94
  10  0.250  0.250  0.000-   5 2.94  22 2.94  17 2.94  21 2.94   3 2.94   6 2.94   8 2.94  11 2.94
                             9 2.94
  11  0.333  0.333  0.000-  52 2.94  12 2.94 103 2.94  24 2.94   9 2.94  10 2.94   6 2.94  23 2.94
                            22 2.94
  12  0.417  0.417  0.000-  52 2.94  53 2.94  11 2.94  64 2.94 145 2.94  24 2.94 104 2.94 103 2.94
                           116 2.94
  13  0.083  0.000  0.120-  25 2.90  26 2.91  81 2.91  14 2.94   1 2.94  57 2.94  68 2.94 114 2.94
                            15 2.94  71 2.94  69 2.94   2 2.94
  14  0.000  0.167  0.120- 131 2.90  27 2.91  25 2.91  13 2.94 114 2.94  15 2.94   2 2.94 102 2.94
                           118 2.94  19 2.94 120 2.94   7 2.94
  15  0.167  0.083  0.120-  27 2.91  28 2.91  26 2.91  19 2.94   3 2.94  14 2.94  17 2.94   2 2.94
                             4 2.94  16 2.94  13 2.94  71 2.94
  16  0.333  0.000  0.120-  29 2.91  28 2.91  84 2.91  17 2.94  18 2.94 164 2.94   5 2.94  60 2.94
                            15 2.94  71 2.94  72 2.94   4 2.94
  17  0.250  0.167  0.120-  32 2.91  28 2.91  30 2.91  18 2.94  16 2.94  22 2.94   5 2.94  15 2.94
                            10 2.94  19 2.94  21 2.94   3 2.94
  18  0.417  0.083  0.120-  29 2.91  30 2.91 121 2.91  17 2.94  22 2.94  16 2.94 110 2.94   6 2.94
                             5 2.94 109 2.94 164 2.94  97 2.94
  19  0.083  0.250  0.120-  31 2.91  32 2.91  27 2.91  15 2.94   7 2.94   3 2.94   8 2.94  17 2.94
                            14 2.94 120 2.94  21 2.94  20 2.94
  20  1.000  0.417  0.120-  33 2.90 173 2.91  31 2.91 162 2.94  49 2.94  61 2.94 160 2.94   8 2.94
                           120 2.94  21 2.94  19 2.94 108 2.94
  21  0.167  0.333  0.120-  34 2.90  33 2.91  32 2.91  61 2.94  22 2.94  23 2.94   9 2.94  10 2.94
                            20 2.94  19 2.94  17 2.94   8 2.94
  22  0.333  0.250  0.120-  35 2.90  34 2.90  30 2.91  18 2.94  21 2.94  17 2.94  10 2.94 110 2.94
                            24 2.94  23 2.94   6 2.94  11 2.94
  23  0.250  0.417  0.120-  74 2.89  34 2.90  36 2.92  61 2.94  63 2.94  21 2.94  64 2.94  52 2.94
                             9 2.94  24 2.94  22 2.94  11 2.94
  24  0.417  0.333  0.120-  35 2.91  36 2.91 127 2.91  64 2.94  11 2.94  12 2.94 103 2.94 115 2.94
                           116 2.94  23 2.94  22 2.94 110 2.94
  25  0.000  0.083  0.238-  13 2.90 114 2.91  14 2.91 126 2.93  26 2.94  81 2.94 131 2.94  27 2.94
                           125 2.94  37 2.94 138 2.94  38 2.95
  26  0.167  1.000  0.238-  71 2.91  13 2.91  15 2.91  84 2.94  25 2.94  82 2.94  28 2.94  27 2.94
                            81 2.94  93 2.94  40 2.94  38 2.95
  27  0.083  0.167  0.238-  15 2.91  14 2.91  19 2.91 131 2.93  32 2.94  28 2.94  31 2.94  26 2.94
                            25 2.94  43 2.94  39 2.95  38 2.95
  28  0.250  0.083  0.238-  16 2.91  15 2.91  17 2.91  84 2.94  27 2.94  32 2.94  29 2.94  30 2.94
                            26 2.94  41 2.94  40 2.95  39 2.95
  29  0.417  0.000  0.238-  18 2.91  16 2.91 164 2.91  30 2.94  28 2.94 175 2.94 121 2.94  84 2.94
                           177 2.94  41 2.94 133 2.94  96 2.95
  30  0.333  0.167  0.238-  17 2.91  22 2.91  18 2.91  35 2.93  29 2.94  32 2.94  28 2.94  34 2.94
                           121 2.94  42 2.95  41 2.95  46 2.95
  31  0.000  0.333  0.238-  19 2.91 120 2.91  20 2.91  33 2.93 131 2.94 132 2.94  27 2.94  32 2.94
                           173 2.94 144 2.94  44 2.95  43 2.95
  32  0.167  0.250  0.238-  19 2.91  17 2.91  21 2.91  34 2.93  27 2.94  33 2.94  31 2.94  28 2.94
                            30 2.94  46 2.94  44 2.95  39 2.95
  33  0.083  0.416  0.238-  20 2.90  21 2.91  61 2.91  74 2.93  31 2.93 173 2.94  34 2.94  32 2.94
                            45 2.94  73 2.94  44 2.95  85 2.95
  34  0.250  0.333  0.238-  21 2.90  23 2.90  22 2.90  47 2.93  32 2.93  33 2.94  74 2.94  30 2.94
                            35 2.95  36 2.95  45 2.95  46 2.96
  35  0.417  0.250  0.238-  22 2.90 110 2.90  24 2.91  30 2.93 121 2.93 139 2.93  47 2.94  36 2.94
                           127 2.94  34 2.95 123 2.95  42 2.96
  36  0.334  0.416  0.238-  88 2.90  24 2.91  64 2.92  23 2.92  77 2.93 127 2.93  48 2.94  35 2.94
                            47 2.95  34 2.95  76 2.95  74 2.97
  37  0.000  1.000  0.358- 138 2.93  93 2.93  92 2.94 137 2.94  38 2.94 192 2.94  81 2.94  25 2.94
                           125 2.94
  38  0.084  0.083  0.358- 138 2.93  93 2.93  43 2.93  39 2.93  40 2.93  37 2.94  26 2.95  27 2.95
                            25 2.95
  39  0.167  0.167  0.359-  46 2.93  43 2.93  38 2.93  40 2.94  44 2.94  41 2.94  27 2.95  28 2.95
                            32 2.95
  40  0.250  1.000  0.358-  38 2.93  41 2.94  95 2.94  93 2.94  39 2.94  96 2.94  26 2.94  84 2.94
                            28 2.95
  41  0.333  0.083  0.358-  42 2.93  46 2.93  96 2.93  40 2.94  39 2.94 133 2.94  28 2.94  29 2.94
                            30 2.95
  42  0.417  0.166  0.359- 139 2.92  47 2.93  41 2.93 133 2.93  46 2.94  30 2.95 121 2.95 134 2.95
                            35 2.96
  43  0.000  0.250  0.359- 143 2.92  39 2.93  38 2.93  44 2.94 138 2.94 144 2.94  27 2.94  31 2.95
                           131 2.95
  44  0.083  0.333  0.359-  45 2.92  46 2.93 144 2.93  43 2.94  39 2.94  85 2.94  33 2.95  31 2.95
                            32 2.95
  45  0.166  0.416  0.359-  88 2.91  44 2.92  85 2.93  47 2.94  46 2.94  33 2.94  34 2.95  86 2.96
                            74 2.97
  46  0.250  0.250  0.359-  47 2.92  39 2.93  44 2.93  41 2.93  45 2.94  42 2.94  32 2.94  30 2.95
                            34 2.96
  47  0.333  0.332  0.358-  46 2.92  42 2.93  34 2.93  45 2.94  35 2.94  48 2.94  36 2.95 139 2.97
                            88 2.98
  48  0.417  0.414  0.359- 198 2.71 127 2.93  36 2.94  47 2.94 139 2.95  77 2.95 140 3.00  88 3.01
                           181 3.02  89 3.02
  49  1.000  0.500  0.000-   8 2.94  20 2.94   9 2.94 108 2.94  50 2.94 149 2.94 150 2.94 162 2.94
                            61 2.94
  50  0.083  0.583  0.000-   9 2.94  63 2.94  61 2.94  62 2.94  51 2.94  52 2.94  49 2.94 150 2.94
                            55 2.94
  51  0.167  0.667  0.000-  56 2.94  53 2.94  58 2.94  65 2.94  50 2.94  55 2.94  52 2.94  63 2.94
                            67 2.94
  52  0.250  0.500  0.000-  12 2.94  11 2.94  53 2.94   9 2.94  23 2.94  64 2.94  50 2.94  51 2.94
                            63 2.94
  53  0.333  0.583  0.000-  12 2.94  52 2.94  51 2.94  64 2.94  65 2.94  54 2.94 145 2.94  58 2.94
                            66 2.94
  54  0.417  0.667  0.000-  59 2.94 158 2.94  66 2.94  70 2.94  53 2.94 146 2.94 151 2.94  58 2.94
                           145 2.94
  55  1.000  0.750  0.000- 156 2.94 155 2.94  56 2.94 168 2.94  67 2.94  62 2.94 150 2.94  51 2.94
                            50 2.94
  56  0.083  0.833  0.000-  58 2.94  51 2.94  57 2.94  55 2.94  67 2.94  69 2.94 156 2.94   1 2.94
                            68 2.94
  57  0.167  0.917  0.000-  58 2.94  56 2.94   1 2.94  69 2.94  13 2.94   4 2.94  59 2.94   2 2.94
                            71 2.94
  58  0.250  0.750  0.000-  56 2.94  57 2.94  51 2.94  69 2.94  59 2.94  65 2.94  54 2.94  53 2.94
                            70 2.94
  59  0.333  0.833  0.000-  54 2.94  70 2.94 151 2.94  58 2.94  72 2.94  71 2.94  60 2.94  57 2.94
                             4 2.94
  60  0.417  0.917  0.000- 151 2.94 164 2.94  16 2.94  59 2.94   4 2.94 152 2.94  97 2.94   5 2.94
                            72 2.94
  61  0.083  0.500  0.120-  74 2.87  73 2.91  33 2.91  23 2.94  21 2.94  63 2.94   9 2.94  20 2.94
                            50 2.94  62 2.94  49 2.94 162 2.94
  62  0.000  0.667  0.120-  75 2.91  73 2.91 179 2.91 168 2.94  63 2.94  67 2.94  50 2.94  55 2.94
                            61 2.94 150 2.94 162 2.94 166 2.94
  63  0.167  0.583  0.120-  74 2.89  75 2.91  76 2.91  23 2.94  61 2.94  62 2.94  50 2.94  65 2.94
                            64 2.94  67 2.94  51 2.94  52 2.94
  64  0.333  0.500  0.120-  76 2.91  36 2.92  77 2.93  24 2.94  12 2.94  23 2.94 116 2.94  52 2.94
                            53 2.94  66 2.94  63 2.94  65 2.94
  65  0.250  0.667  0.120-  76 2.90  80 2.91  78 2.91  69 2.94  51 2.94  53 2.94  58 2.94  66 2.94
                            67 2.94  63 2.94  70 2.94  64 2.94
  66  0.417  0.583  0.120- 169 2.90  78 2.91  77 2.94 116 2.94 158 2.94 157 2.94 145 2.94  54 2.94
                            65 2.94  64 2.94  70 2.94  53 2.94
  67  0.083  0.750  0.120-  79 2.91  75 2.91  80 2.91  68 2.94  62 2.94  69 2.94 168 2.94  56 2.94
                            55 2.94  65 2.94  63 2.94  51 2.94
  68  1.000  0.917  0.120- 125 2.90  81 2.91  79 2.91  67 2.94 156 2.94  13 2.94  69 2.94 112 2.94
                           168 2.94 114 2.94   1 2.94  56 2.94
  69  0.167  0.833  0.120-  81 2.90  80 2.91  82 2.91  65 2.94  58 2.94  70 2.94  67 2.94  56 2.94
                            57 2.94  71 2.94  68 2.94  13 2.94
  70  0.333  0.750  0.120-  78 2.90  83 2.91  82 2.91  72 2.94  71 2.94 158 2.94  59 2.94  69 2.94
                            54 2.94  65 2.94  66 2.94  58 2.94
  71  0.250  0.917  0.120-  26 2.91  82 2.91  84 2.91  70 2.94  72 2.94   4 2.94  59 2.94  69 2.94
                            16 2.94  13 2.94  15 2.94  57 2.94
  72  0.417  0.833  0.120-  83 2.90  84 2.91 175 2.91  70 2.94 158 2.94  71 2.94 163 2.94 151 2.94
                            59 2.94 164 2.94  16 2.94  60 2.94
  73  1.000  0.583  0.238- 162 2.90  62 2.91  61 2.91  74 2.92 174 2.93 179 2.94 173 2.94  86 2.94
                            75 2.94  33 2.94  85 2.95 186 2.95
  74  0.165  0.500  0.237-  61 2.87  88 2.87  63 2.89  23 2.89  73 2.92  33 2.93  75 2.94  34 2.94
                            36 2.97  45 2.97  76 2.97  86 2.98
  75  0.083  0.667  0.238-  63 2.91  67 2.91  62 2.91  79 2.94  74 2.94 179 2.94  80 2.94  73 2.94
                            76 2.95  86 2.95  87 2.95  91 2.95
  76  0.250  0.584  0.238-  88 2.89  65 2.90  64 2.91  63 2.91  77 2.93  80 2.93  78 2.94  75 2.95
                            89 2.95  36 2.95  87 2.95  74 2.97
  77  0.417  0.499  0.239- 181 2.92 116 2.93  64 2.93  89 2.93  36 2.93 127 2.93  76 2.93  66 2.94
                           129 2.95  48 2.95  78 2.95 169 2.96
  78  0.334  0.667  0.238-  70 2.90  66 2.91  65 2.91  89 2.92 169 2.93  82 2.94  76 2.94  83 2.94
                            80 2.94  90 2.95  77 2.95  94 2.96
  79  0.000  0.833  0.238-  67 2.91 168 2.91  68 2.91  75 2.94 125 2.94 179 2.94  80 2.94  81 2.94
                           180 2.94  91 2.94 192 2.94  92 2.95
  80  0.167  0.750  0.238-  69 2.91  65 2.91  67 2.91  81 2.93  76 2.93  82 2.94  79 2.94  75 2.94
                            78 2.94  87 2.94  92 2.95  94 2.95
  81  0.084  0.916  0.238-  69 2.90  68 2.91  13 2.91  80 2.93 125 2.94  82 2.94  25 2.94  79 2.94
                            26 2.94  37 2.94  92 2.95  93 2.95
  82  0.250  0.833  0.238-  70 2.91  71 2.91  69 2.91  78 2.94  26 2.94  84 2.94  83 2.94  81 2.94
                            80 2.94  94 2.94  93 2.95  95 2.95
  83  0.417  0.751  0.238-  72 2.90 158 2.90  70 2.91  90 2.93  84 2.93 175 2.93  82 2.94 171 2.94
                            78 2.94 169 2.94  95 2.95 187 2.96
  84  0.333  0.917  0.238-  16 2.91  71 2.91  72 2.91  83 2.93  26 2.94  28 2.94  82 2.94  29 2.94
                           175 2.94  96 2.94  40 2.94  95 2.95
  85  1.000  0.500  0.358-  86 2.93  45 2.93 144 2.94 185 2.94  44 2.94 186 2.94  33 2.95 173 2.95
                            73 2.95
  86  0.082  0.584  0.359-  88 2.91 186 2.91  91 2.92  85 2.93  73 2.94  75 2.95  87 2.96  45 2.96
                            74 2.98
  87  0.166  0.667  0.358-  92 2.93  88 2.93  91 2.94  80 2.94  94 2.95  75 2.95  76 2.95  89 2.95
                            86 2.96
  88  0.246  0.501  0.354-  74 2.87  76 2.89  36 2.90  86 2.91  45 2.91  87 2.93  47 2.98  48 3.01
                            89 3.03
  89  0.334  0.585  0.358-  78 2.92  94 2.92  77 2.93  90 2.93  76 2.95  87 2.95 181 2.98  48 3.02
                            88 3.03
  90  0.418  0.668  0.358- 187 2.91  95 2.92  83 2.93  89 2.93 169 2.94 182 2.94  78 2.95 181 2.96
                            94 2.96
  91  1.000  0.750  0.359-  86 2.92 192 2.93  87 2.94 191 2.94  92 2.94 186 2.94  79 2.94 179 2.95
                            75 2.95
  92  0.083  0.833  0.359-  87 2.93  94 2.93  37 2.94  91 2.94 192 2.94  93 2.94  79 2.95  81 2.95
                            80 2.95
  93  0.167  0.917  0.358-  94 2.93  38 2.93  37 2.93  40 2.94  95 2.94  92 2.94  26 2.94  81 2.95
                            82 2.95
  94  0.250  0.751  0.359-  89 2.92  93 2.93  95 2.93  92 2.93  82 2.94  87 2.95  80 2.95  78 2.96
                            90 2.96
  95  0.333  0.834  0.359-  90 2.92  94 2.93  96 2.94  40 2.94  93 2.94  84 2.95 187 2.95  82 2.95
                            83 2.95
  96  0.417  0.917  0.358-  41 2.93 133 2.94  95 2.94 187 2.94  40 2.94 188 2.94  84 2.94 175 2.95
                            29 2.95
  97  0.500  0.000  0.000-   6 2.94  98 2.94 153 2.94 109 2.94  60 2.94   5 2.94 152 2.94 164 2.94
                            18 2.94
  98  0.583  0.083  0.000-   6 2.94 103 2.94  97 2.94 110 2.94  99 2.94 109 2.94 100 2.94 153 2.94
                           111 2.94
  99  0.667  0.167  0.000- 100 2.94 111 2.94 101 2.94  98 2.94 113 2.94 115 2.94 106 2.94 103 2.94
                           104 2.94
 100  0.750  0.000  0.000-  99 2.94 112 2.94 111 2.94 153 2.94 101 2.94  98 2.94 156 2.94 155 2.94
                           167 2.94
 101  0.833  0.083  0.000- 106 2.94 102 2.94  99 2.94 113 2.94 114 2.94   1 2.94 100 2.94 156 2.94
                           112 2.94
 102  0.917  0.167  0.000-   1 2.94   2 2.94 101 2.94 114 2.94  14 2.94 106 2.94   7 2.94 107 2.94
                           118 2.94
 103  0.500  0.250  0.000-  98 2.94  11 2.94   6 2.94 110 2.94  24 2.94  99 2.94 104 2.94  12 2.94
                           115 2.94
 104  0.583  0.333  0.000- 145 2.94 117 2.94 116 2.94 115 2.94 105 2.94 106 2.94  12 2.94 103 2.94
                            99 2.94
 105  0.667  0.417  0.000- 146 2.94 145 2.94 148 2.94 157 2.94 119 2.94 107 2.94 104 2.94 106 2.94
                           117 2.94
 106  0.750  0.250  0.000- 101 2.94 118 2.94 102 2.94 104 2.94  99 2.94 107 2.94 105 2.94 113 2.94
                           117 2.94
 107  0.833  0.333  0.000- 148 2.94 108 2.94 120 2.94 105 2.94   7 2.94 106 2.94 102 2.94 119 2.94
                           118 2.94
 108  0.917  0.417  0.000- 148 2.94 149 2.94 107 2.94 160 2.94  49 2.94 120 2.94   8 2.94   7 2.94
                            20 2.94
 109  0.583  0.000  0.120- 121 2.91 122 2.91 177 2.91 110 2.94 167 2.94  97 2.94  98 2.94 153 2.94
                            18 2.94 164 2.94 111 2.94 165 2.94
 110  0.500  0.167  0.120-  35 2.90 123 2.90 121 2.91 109 2.94  98 2.94  18 2.94 111 2.94   6 2.94
                           103 2.94  22 2.94 115 2.94  24 2.94
 111  0.667  0.083  0.120- 123 2.89 122 2.91 124 2.91 113 2.94 115 2.94 112 2.94  99 2.94 110 2.94
                           100 2.94 109 2.94 167 2.94  98 2.94
 112  0.833  0.000  0.120- 124 2.90 125 2.91 180 2.91 113 2.94 111 2.94 100 2.94 114 2.94 167 2.94
                            68 2.94 168 2.94 101 2.94 156 2.94
 113  0.750  0.167  0.120- 128 2.87 126 2.91 124 2.91 111 2.94 112 2.94 115 2.94 114 2.94 101 2.94
                            99 2.94 118 2.94 117 2.94 106 2.94
 114  0.917  0.083  0.120- 126 2.90  25 2.91 125 2.91 118 2.94  14 2.94 113 2.94 102 2.94 101 2.94
                            13 2.94 112 2.94  68 2.94   1 2.94
 115  0.583  0.250  0.120- 128 2.90 123 2.90 127 2.91 111 2.94 113 2.94 117 2.94  99 2.94 104 2.94
                            24 2.94 110 2.94 116 2.94 103 2.94
 116  0.500  0.417  0.120- 129 2.90 127 2.92  77 2.93 157 2.94  66 2.94 117 2.94 145 2.94  64 2.94
                           104 2.94  24 2.94 115 2.94  12 2.94
 117  0.667  0.333  0.120- 129 2.89 128 2.90 130 2.91 157 2.94 116 2.94 115 2.94 104 2.94 118 2.94
                           119 2.94 113 2.94 105 2.94 106 2.94
 118  0.833  0.250  0.120- 130 2.89 131 2.91 126 2.91 114 2.94 106 2.94 117 2.94 113 2.94  14 2.94
                           120 2.94 119 2.94 102 2.94 107 2.94
 119  0.750  0.417  0.120- 170 2.90 130 2.90 132 2.91 159 2.94 160 2.94 157 2.94 148 2.94 105 2.94
                           117 2.94 120 2.94 118 2.94 107 2.94
 120  0.917  0.333  0.120- 132 2.91  31 2.91 131 2.91 160 2.94 107 2.94 108 2.94  20 2.94  19 2.94
                           119 2.94 118 2.94  14 2.94   7 2.94
 121  0.500  0.083  0.238- 109 2.91 110 2.91  18 2.91  35 2.93 177 2.94 122 2.94  29 2.94 123 2.94
                            30 2.94 133 2.95  42 2.95 134 2.95
 122  0.667  1.000  0.238- 167 2.91 109 2.91 111 2.91 123 2.93 124 2.94 177 2.94 178 2.94 121 2.94
                           180 2.94 134 2.94 189 2.95 136 2.95
 123  0.584  0.166  0.237- 111 2.89 115 2.90 110 2.90 139 2.92 122 2.93 128 2.93 124 2.94 121 2.94
                           127 2.95  35 2.95 135 2.95 134 2.97
 124  0.751  0.083  0.238- 112 2.90 111 2.91 113 2.91 128 2.93 180 2.93 125 2.93 122 2.94 123 2.94
                           135 2.94 126 2.94 136 2.95 137 2.95
 125  0.917  1.000  0.238-  68 2.90 112 2.91 114 2.91 124 2.93 126 2.94  79 2.94  81 2.94  25 2.94
                           180 2.94  37 2.94 192 2.94 137 2.94
 126  0.834  0.166  0.238- 114 2.90 118 2.91 113 2.91 128 2.93  25 2.93 125 2.94 130 2.94 142 2.94
                           131 2.94 124 2.94 137 2.95 138 2.95
 127  0.500  0.333  0.238- 140 2.91  24 2.91 115 2.91 116 2.92  77 2.93  48 2.93  36 2.93  35 2.94
                           123 2.95 129 2.95 139 2.95 128 2.97
 128  0.668  0.248  0.237- 113 2.87 140 2.88 115 2.90 117 2.90 124 2.93 126 2.93 123 2.93 130 2.95
                           129 2.96 135 2.96 127 2.97 142 2.97
 129  0.584  0.416  0.237- 117 2.89 157 2.90 116 2.90 140 2.90 181 2.91 130 2.94 170 2.94 127 2.95
                            77 2.95 169 2.95 141 2.96 128 2.96
 130  0.751  0.333  0.238- 118 2.89 119 2.90 117 2.91 141 2.92 131 2.93 132 2.94 126 2.94 129 2.94
                           128 2.95 170 2.95 142 2.95 143 2.96
 131  0.917  0.250  0.238-  14 2.90 120 2.91 118 2.91 130 2.93  27 2.93  31 2.94 126 2.94 143 2.94
                            25 2.94 132 2.94  43 2.95 138 2.95
 132  0.833  0.417  0.238- 120 2.91 160 2.91 119 2.91 170 2.94 173 2.94 130 2.94  31 2.94 172 2.94
                           131 2.94 184 2.94 144 2.95 143 2.95
 133  0.500  1.000  0.358- 134 2.93  42 2.93  96 2.94 188 2.94 189 2.94  41 2.94 177 2.94  29 2.94
                           121 2.95
 134  0.584  0.082  0.359- 139 2.91 189 2.92 133 2.93 136 2.93 122 2.94 135 2.94 121 2.95  42 2.95
                           123 2.97
 135  0.667  0.165  0.358- 140 2.92 136 2.92 137 2.93 139 2.94 134 2.94 124 2.94 123 2.95 142 2.96
                           128 2.96
 136  0.750  0.999  0.359- 135 2.92 191 2.93 134 2.93 192 2.93 189 2.94 137 2.94 180 2.95 124 2.95
                           122 2.95
 137  0.834  0.083  0.358- 142 2.93 135 2.93 192 2.93  37 2.94 136 2.94 138 2.94 125 2.94 124 2.95
                           126 2.95
 138  0.917  0.166  0.359- 142 2.92  38 2.93  37 2.93 143 2.94  43 2.94 137 2.94  25 2.94 131 2.95
                           126 2.95
 139  0.501  0.247  0.357- 134 2.91  42 2.92 123 2.92  35 2.93 135 2.94  48 2.95 127 2.95  47 2.97
                           140 3.00
 140  0.587  0.331  0.355- 128 2.88 129 2.90 142 2.91 127 2.91 135 2.92 141 2.95 181 2.98  48 3.00
                           139 3.00
 141  0.669  0.416  0.357- 143 2.92 130 2.92 184 2.92 170 2.93 181 2.94 142 2.94 140 2.95 129 2.96
                           182 2.96
 142  0.752  0.249  0.359- 140 2.91 138 2.92 137 2.93 126 2.94 143 2.94 141 2.94 130 2.95 135 2.96
                           128 2.97
 143  0.835  0.333  0.358- 141 2.92  43 2.92 144 2.93 138 2.94 131 2.94 142 2.94 132 2.95 184 2.95
                           130 2.96
 144  0.917  0.416  0.358- 143 2.93 184 2.93  44 2.93  85 2.94 185 2.94  43 2.94  31 2.94 173 2.94
                           132 2.95
 145  0.500  0.500  0.000- 104 2.94 116 2.94 105 2.94  12 2.94 157 2.94  66 2.94 146 2.94  53 2.94
                            54 2.94
 146  0.583  0.583  0.000- 105 2.94 159 2.94 147 2.94  54 2.94 148 2.94 145 2.94 151 2.94 158 2.94
                           157 2.94
 147  0.667  0.667  0.000- 152 2.94 149 2.94 154 2.94 161 2.94 146 2.94 151 2.94 148 2.94 159 2.94
                           163 2.94
 148  0.750  0.500  0.000- 108 2.94 107 2.94 149 2.94 105 2.94 119 2.94 160 2.94 146 2.94 147 2.94
                           159 2.94
 149  0.833  0.583  0.000- 108 2.94 148 2.94 147 2.94 162 2.94 161 2.94 160 2.94 150 2.94  49 2.94
                           154 2.94
 150  0.917  0.667  0.000- 155 2.94  55 2.94 149 2.94 154 2.94  50 2.94  49 2.94 162 2.94 166 2.94
                            62 2.94
 151  0.500  0.750  0.000-  60 2.94  59 2.94 152 2.94  72 2.94 163 2.94  54 2.94 147 2.94 146 2.94
                           158 2.94
 152  0.583  0.833  0.000- 154 2.94 147 2.94 153 2.94 151 2.94 163 2.94 165 2.94  60 2.94  97 2.94
                           164 2.94
 153  0.667  0.917  0.000- 154 2.94 152 2.94  97 2.94 167 2.94 165 2.94 109 2.94 100 2.94 155 2.94
                            98 2.94
 154  0.750  0.750  0.000- 152 2.94 153 2.94 147 2.94 165 2.94 155 2.94 166 2.94 161 2.94 150 2.94
                           149 2.94
 155  0.833  0.833  0.000- 150 2.94  55 2.94 154 2.94 166 2.94 168 2.94 156 2.94 153 2.94 100 2.94
                           167 2.94
 156  0.917  0.917  0.000-  55 2.94  68 2.94 155 2.94   1 2.94 100 2.94  56 2.94 101 2.94 168 2.94
                           112 2.94
 157  0.583  0.500  0.120- 129 2.90 169 2.90 170 2.91 116 2.94 117 2.94  66 2.94 119 2.94 105 2.94
                           145 2.94 159 2.94 158 2.94 146 2.94
 158  0.500  0.667  0.120- 169 2.89  83 2.90 171 2.91  72 2.94  66 2.94  70 2.94  54 2.94 159 2.94
                           163 2.94 157 2.94 146 2.94 151 2.94
 159  0.667  0.583  0.120- 170 2.90 171 2.91 172 2.91 119 2.94 146 2.94 161 2.94 157 2.94 158 2.94
                           160 2.94 163 2.94 147 2.94 148 2.94
 160  0.833  0.500  0.120- 173 2.91 172 2.91 132 2.91 120 2.94 162 2.94 108 2.94 119 2.94  20 2.94
                           148 2.94 149 2.94 159 2.94 161 2.94
 161  0.750  0.667  0.120- 176 2.91 172 2.91 174 2.91 165 2.94 162 2.94 166 2.94 147 2.94 149 2.94
                           154 2.94 163 2.94 159 2.94 160 2.94
 162  0.917  0.583  0.120-  73 2.90 174 2.91 173 2.91  20 2.94 160 2.94 161 2.94 149 2.94 166 2.94
                           150 2.94  49 2.94  62 2.94  61 2.94
 163  0.583  0.750  0.120- 171 2.90 175 2.91 176 2.91 164 2.94 165 2.94  72 2.94 152 2.94 151 2.94
                           161 2.94 158 2.94 159 2.94 147 2.94
 164  0.500  0.917  0.120- 175 2.91 177 2.91  29 2.91 163 2.94  16 2.94  60 2.94 109 2.94  72 2.94
                           165 2.94  18 2.94  97 2.94 152 2.94
 165  0.667  0.833  0.120- 177 2.91 176 2.91 178 2.91 166 2.94 161 2.94 167 2.94 154 2.94 163 2.94
                           152 2.94 153 2.94 164 2.94 109 2.94
 166  0.833  0.750  0.120- 178 2.91 174 2.91 179 2.91 165 2.94 167 2.94 161 2.94 168 2.94 155 2.94
                           154 2.94 162 2.94 150 2.94  62 2.94
 167  0.750  0.917  0.120- 122 2.91 180 2.91 178 2.91 166 2.94 165 2.94 109 2.94 153 2.94 112 2.94
                           168 2.94 111 2.94 100 2.94 155 2.94
 168  0.917  0.833  0.120- 180 2.90 179 2.91  79 2.91  62 2.94  67 2.94 166 2.94  55 2.94 155 2.94
                            68 2.94 167 2.94 112 2.94 156 2.94
 169  0.500  0.584  0.238- 158 2.89 157 2.90  66 2.90 181 2.91  78 2.93 171 2.94  83 2.94  90 2.94
                           170 2.94 129 2.95  77 2.96 182 2.96
 170  0.667  0.500  0.238- 159 2.90 119 2.90 157 2.91 141 2.93 172 2.93 132 2.94 171 2.94 182 2.94
                           129 2.94 169 2.94 130 2.95 184 2.95
 171  0.583  0.667  0.238- 163 2.90 159 2.91 158 2.91 176 2.93 175 2.94 169 2.94 182 2.94 172 2.94
                            83 2.94 170 2.94 187 2.95 183 2.95
 172  0.750  0.583  0.238- 160 2.91 161 2.91 159 2.91 170 2.93 173 2.94 174 2.94 171 2.94 176 2.94
                           132 2.94 184 2.94 185 2.95 183 2.95
 173  0.917  0.500  0.238- 160 2.91  20 2.91 162 2.91  33 2.94 172 2.94 132 2.94  73 2.94 174 2.94
                            31 2.94 144 2.94 185 2.94  85 2.95
 174  0.833  0.667  0.238- 166 2.91 162 2.91 161 2.91  73 2.93 178 2.94 172 2.94 176 2.94 179 2.94
                           173 2.94 186 2.94 185 2.94 190 2.95
 175  0.500  0.833  0.238- 164 2.91 163 2.91  72 2.91  83 2.93 171 2.94 177 2.94  29 2.94 176 2.94
                            84 2.94 187 2.94  96 2.95 188 2.95
 176  0.667  0.750  0.238- 161 2.91 165 2.91 163 2.91 171 2.93 178 2.94 174 2.94 177 2.94 175 2.94
                           172 2.94 188 2.94 183 2.94 190 2.95
 177  0.583  0.917  0.238- 165 2.91 164 2.91 109 2.91 175 2.94 122 2.94 176 2.94 121 2.94 178 2.94
                            29 2.94 133 2.94 189 2.95 188 2.95
 178  0.750  0.833  0.238- 166 2.91 165 2.91 167 2.91 180 2.94 174 2.94 176 2.94 122 2.94 179 2.94
                           177 2.94 189 2.94 191 2.95 190 2.95
 179  0.917  0.750  0.238-  62 2.91 168 2.91 166 2.91 180 2.93  73 2.94  79 2.94  75 2.94 178 2.94
                           174 2.94  91 2.95 191 2.95 186 2.95
 180  0.833  0.916  0.238- 168 2.90 167 2.91 112 2.91 124 2.93 179 2.93 178 2.94 122 2.94  79 2.94
                           125 2.94 192 2.94 136 2.95 191 2.95
 181  0.503  0.500  0.356- 169 2.91 129 2.91  77 2.92 182 2.92 141 2.94  90 2.96  89 2.98 140 2.98
                            48 3.02
 182  0.585  0.583  0.358- 181 2.92 183 2.92 184 2.93 171 2.94 187 2.94  90 2.94 170 2.94 141 2.96
                           169 2.96
 183  0.667  0.667  0.359- 182 2.92 190 2.93 185 2.93 188 2.94 187 2.94 184 2.94 176 2.94 172 2.95
                           171 2.95
 184  0.751  0.500  0.358- 141 2.92 182 2.93 185 2.93 144 2.93 132 2.94 183 2.94 172 2.94 143 2.95
                           170 2.95
 185  0.833  0.583  0.358- 184 2.93 183 2.93 186 2.93  85 2.94 190 2.94 144 2.94 173 2.94 174 2.94
                           172 2.95
 186  0.916  0.667  0.359-  86 2.91 190 2.93 191 2.93 185 2.93  91 2.94  85 2.94 174 2.94 179 2.95
                            73 2.95
 187  0.500  0.750  0.359-  90 2.91 188 2.93  96 2.94 183 2.94 182 2.94 175 2.94  95 2.95 171 2.95
                            83 2.96
 188  0.584  0.833  0.358- 187 2.93 189 2.93 133 2.94 183 2.94 190 2.94  96 2.94 176 2.94 177 2.95
                           175 2.95
 189  0.667  0.916  0.358- 134 2.92 190 2.93 188 2.93 191 2.93 136 2.94 133 2.94 178 2.94 177 2.95
                           122 2.95
 190  0.750  0.750  0.359- 183 2.93 186 2.93 189 2.93 191 2.94 188 2.94 185 2.94 174 2.95 178 2.95
                           176 2.95
 191  0.833  0.833  0.358- 136 2.93 186 2.93 189 2.93 190 2.94  91 2.94 192 2.94 178 2.95 180 2.95
                           179 2.95
 192  0.917  0.916  0.358-  91 2.93 137 2.93 136 2.93  92 2.94 191 2.94  37 2.94 125 2.94 180 2.94
                            79 2.94
 193  0.584  0.441  0.526- 210 1.10 209 1.10 211 1.11 194 1.50
 194  0.504  0.459  0.513- 195 1.40 199 1.42 193 1.50
 195  0.444  0.533  0.512- 202 1.09 194 1.40 196 1.40
 196  0.368  0.551  0.505- 203 1.09 195 1.40 197 1.41
 197  0.351  0.492  0.501- 201 1.37 196 1.41 198 1.42
 198  0.412  0.416  0.494- 204 1.09 199 1.42 197 1.42  48 2.71
 199  0.488  0.399  0.505- 200 1.37 198 1.42 194 1.42
 200  0.545  0.325  0.509- 205 1.02 206 1.02 199 1.37
 201  0.278  0.506  0.505- 208 1.02 207 1.02 197 1.37
 202  0.456  0.580  0.517- 195 1.09
 203  0.322  0.610  0.510- 196 1.09
 204  0.399  0.370  0.495- 198 1.09
 205  0.599  0.313  0.505- 200 1.02
 206  0.535  0.284  0.491- 200 1.02
 207  0.235  0.560  0.496- 201 1.02
 208  0.266  0.464  0.493- 201 1.02
 209  0.606  0.409  0.574- 193 1.10
 210  0.588  0.493  0.529- 193 1.10
 211  0.623  0.405  0.486- 193 1.11
 
  LATTYP: Found a hexagonal cell.
 ALAT       =    20.3604714350
 C/A-ratio  =     0.9822955261
  
  Lattice vectors:
  
 A1 = (  10.1802357175, -17.6326854957,   0.0000000000)
 A2 = ( -20.3604714350,   0.0000000000,   0.0000000000)
 A3 = (   0.0000000000,   0.0000000000, -20.0000000000)


Analysis of symmetry for initial positions (statically):
=====================================================================
 Subroutine PRICEL returns:
 Original cell was already a primitive cell.
 

 Routine SETGRP: Setting up the symmetry group for a 
 hexagonal supercell.


 Subroutine GETGRP returns: Found  1 space group operations
 (whereof  1 operations were pure point group operations)
 out of a pool of 24 trial point group operations.


The static configuration has the point symmetry C_1 .


Analysis of symmetry for dynamics (positions and initial velocities):
=====================================================================
 Subroutine PRICEL returns:
 Original cell was already a primitive cell.
 

 Routine SETGRP: Setting up the symmetry group for a 
 hexagonal supercell.


 Subroutine GETGRP returns: Found  1 space group operations
 (whereof  1 operations were pure point group operations)
 out of a pool of 24 trial point group operations.


The dynamic configuration has the point symmetry C_1 .


Analysis of constrained symmetry for selective dynamics:
=====================================================================
 Subroutine PRICEL returns:
 Original cell was already a primitive cell.
 

 Routine SETGRP: Setting up the symmetry group for a 
 hexagonal supercell.


 Subroutine GETGRP returns: Found  1 space group operations
 (whereof  1 operations were pure point group operations)
 out of a pool of 24 trial point group operations.


The constrained configuration has the point symmetry C_1 .


 Subroutine INISYM returns: Found  1 space group operations
 (whereof  1 operations are pure point group operations),
 and found     1 'primitive' translations

 
 
 KPOINTS: K-POINTS                                

Automatic generation of k-mesh.
Space group operators:
 irot       det(A)        alpha          n_x          n_y          n_z        tau_x        tau_y        tau_z
    1     1.000000     0.000000     1.000000     0.000000     0.000000     0.000000     0.000000     0.000000
 
 Subroutine IBZKPT returns following result:
 ===========================================
 
 Found      5 irreducible k-points:
 
 Following reciprocal coordinates:
            Coordinates               Weight
  0.000000  0.000000  0.000000      1.000000
  0.333333  0.000000  0.000000      2.000000
  0.000000  0.333333  0.000000      2.000000
  0.333333  0.333333  0.000000      2.000000
 -0.333333  0.333333  0.000000      2.000000
 
 Following cartesian coordinates:
            Coordinates               Weight
  0.000000  0.000000  0.000000      1.000000
  0.016372 -0.009452  0.000000      2.000000
  0.000000  0.018904  0.000000      2.000000
  0.016372  0.009452  0.000000      2.000000
 -0.016372  0.028356  0.000000      2.000000
 


--------------------------------------------------------------------------------------------------------




 Dimension of arrays:
   k-points           NKPTS =      5   k-points in BZ     NKDIM =      5   number of bands    NBANDS=   1296
   number of dos      NEDOS =    301   number of ions     NIONS =    211
   non local maximal  LDIM  =      6   non local SUM 2l+1 LMDIM =     18
   total plane-waves  NPLWV = ******
   max r-space proj   IRMAX =   2164   max aug-charges    IRDMAX=  10927
   dimension x,y,z NGX =   108 NGY =  108 NGZ =  108
   dimension x,y,z NGXF=   216 NGYF=  216 NGZF=  216
   support grid    NGXF=   216 NGYF=  216 NGZF=  216
   ions per type =             192   7   2  10
   NGX,Y,Z   is equivalent  to a cutoff of   8.82,  8.82,  8.98 a.u.
   NGXF,Y,Z  is equivalent  to a cutoff of  17.64, 17.64, 17.95 a.u.

 SYSTEM =  x                                       
 POSCAR =  Au  C  N  H                             

 Startparameter for this run:
   NWRITE =      0    write-flag & timer
   PREC   = normal    normal or accurate (medium, high low for compatibility)
   ISTART =      0    job   : 0-new  1-cont  2-samecut
   ICHARG =      2    charge: 1-file 2-atom 10-const
   ISPIN  =      1    spin polarized calculation?
   LNONCOLLINEAR =      F non collinear calculations
   LSORBIT =      F    spin-orbit coupling
   INIWAV =      1    electr: 0-lowe 1-rand  2-diag
   LASPH  =      F    aspherical Exc in radial PAW
   METAGGA=      F    non-selfconsistent MetaGGA calc.

 Electronic Relaxation 1
   ENCUT  =  450.0 eV  33.07 Ry    5.75 a.u.  35.22 35.22 34.59*2*pi/ulx,y,z
   ENINI  =  450.0     initial cutoff
   ENAUG  =  644.9 eV  augmentation charge cutoff
   NELM   =     50;   NELMIN=  5; NELMDL= -7     # of ELM steps 
   EDIFF  = 0.1E-04   stopping-criterion for ELM
   LREAL  =      T    real-space projection
   NLSPLINE    = F    spline interpolate recip. space projectors
   LCOMPAT=      F    compatible to vasp.4.4
   GGA_COMPAT  = T    GGA compatible to vasp.4.4-vasp.4.6
   LMAXPAW     = -100 max onsite density
   LMAXMIX     =    2 max onsite mixed and CHGCAR
   VOSKOWN=      0    Vosko Wilk Nusair interpolation
   ROPT   =   -0.00050  -0.00050  -0.00050  -0.00050
 Ionic relaxation
   EDIFFG = -.2E-01   stopping-criterion for IOM
   NSW    =    300    number of steps for IOM
   NBLOCK =      1;   KBLOCK =    300    inner block; outer block 
   IBRION =      2    ionic relax: 0-MD 1-quasi-New 2-CG
   NFREE  =      2    steps in history (QN), initial steepest desc. (CG)
   ISIF   =      2    stress and relaxation
   IWAVPR =     11    prediction:  0-non 1-charg 2-wave 3-comb
   ISYM   =      2    0-nonsym 1-usesym 2-fastsym
   LCORR  =      T    Harris-Foulkes like correction to forces

   POTIM  = 0.1500    time-step for ionic-motion
   TEIN   =    0.0    initial temperature
   TEBEG  =    0.0;   TEEND  =   0.0 temperature during run
   SMASS  =  -3.00    Nose mass-parameter (am)
   estimated Nose-frequenzy (Omega)   =  0.10E-29 period in steps =****** mass=  -0.947E-26a.u.
   SCALEE = 1.0000    scale energy and forces
   NPACO  =    256;   APACO  = 16.0  distance and # of slots for P.C.
   PSTRESS=    0.0 pullay stress

  Mass of Ions in am
   POMASS = 196.97 12.01 14.00  1.00
  Ionic Valenz
   ZVAL   =  11.00  4.00  5.00  1.00
  Atomic Wigner-Seitz radii
   RWIGS  =  -1.00 -1.00 -1.00 -1.00
  virtual crystal weights 
   VCA    =   1.00  1.00  1.00  1.00
   NELECT =    2160.0000    total number of electrons
   NUPDOWN=      -1.0000    fix difference up-down

 DOS related values:
   EMIN   =  10.00;   EMAX   =-10.00  energy-range for DOS
   EFERMI =   0.00
   ISMEAR =     0;   SIGMA  =   0.03  broadening in eV -4-tet -1-fermi 0-gaus

 Electronic relaxation 2 (details)
   IALGO  =     68    algorithm
   LDIAG  =      T    sub-space diagonalisation (order eigenvalues)
   LSUBROT=      F    optimize rotation matrix (better conditioning)
   TURBO    =      0    0=normal 1=particle mesh
   IRESTART =      0    0=no restart 2=restart with 2 vectors
   NREBOOT  =      0    no. of reboots
   NMIN     =      0    reboot dimension
   EREF     =   0.00    reference energy to select bands
   IMIX   =      4    mixing-type and parameters
     AMIX     =   0.40;   BMIX     =  1.00
     AMIX_MAG =   1.60;   BMIX_MAG =  1.00
     AMIN     =   0.10
     WC   =   100.;   INIMIX=   1;  MIXPRE=   1;  MAXMIX= -45

 Intra band minimization:
   WEIMIN = 0.0010     energy-eigenvalue tresh-hold
   EBREAK =  0.19E-08  absolut break condition
   DEPER  =   0.30     relativ break condition  

   TIME   =   0.40     timestep for ELM

  volume/ion in A,a.u.               =      34.03       229.64
  Fermi-wavevector in a.u.,A,eV,Ry     =   1.096934  2.072905 16.371415  1.203265
  Thomas-Fermi vector in A             =   2.233285
 
 Write flags
   LWAVE        =      F    write WAVECAR
   LDOWNSAMPLE  =      F    k-point downsampling of WAVECAR
   LCHARG       =      F    write CHGCAR
   LVTOT        =      F    write LOCPOT, total local potential
   LVHAR        =      F    write LOCPOT, Hartree potential only
   LELF         =      F    write electronic localiz. function (ELF)
   LORBIT       =      0    0 simple, 1 ext, 2 COOP (PROOUT), +10 PAW based schemes


 Dipole corrections
   LMONO  =      F    monopole corrections only (constant potential shift)
   LDIPOL =      T    correct potential (dipole corrections)
   IDIPOL =      3    1-x, 2-y, 3-z, 4-all directions 
   EPSILON=  1.0000000 bulk dielectric constant

 Exchange correlation treatment:
   GGA     =    PE    GGA type
   LEXCH   =     8    internal setting for exchange type
   VOSKOWN=      0    Vosko Wilk Nusair interpolation
   LHFCALC =     F    Hartree Fock is set to
   LHFONE  =     F    Hartree Fock one center treatment
   AEXX    =    0.0000 exact exchange contribution

 Linear response parameters
   LEPSILON=     F    determine dielectric tensor
   LRPA    =     F    only Hartree local field effects (RPA)
   LNABLA  =     F    use nabla operator in PAW spheres
   LVEL    =     F    velocity operator in full k-point grid
   LINTERFAST=   F  fast interpolation
   KINTER  =     0    interpolate to denser k-point grid
   CSHIFT  =0.1000    complex shift for real part using Kramers Kronig
   OMEGAMAX=  -1.0    maximum frequency
   DEG_THRESHOLD= 0.2000000E-02 threshold for treating states as degnerate
   RTIME   =   -0.100 relaxation time in fs
  (WPLASMAI=    0.000 imaginary part of plasma frequency in eV, 0.658/RTIME)
   DFIELD  = 0.0000000 0.0000000 0.0000000 field for delta impulse in time
 
 Orbital magnetization related:
   ORBITALMAG=     F  switch on orbital magnetization
   LCHIMAG   =     F  perturbation theory with respect to B field
   DQ        =  0.001000  dq finite difference perturbation B field
   LLRAUG    =     F  two centre corrections for induced B field



--------------------------------------------------------------------------------------------------------


 conjugate gradient relaxation of ions
   using selective dynamics as specified on POSCAR
 charge density and potential will be updated during run
 non-spin polarized calculation
 RMM-DIIS sequential band-by-band and
  variant of blocked Davidson during initial phase
 perform sub-space diagonalisation
    before iterative eigenvector-optimisation
 modified Broyden-mixing scheme, WC =      100.0
 initial mixing is a Kerker type mixing with AMIX =  0.4000 and BMIX =      1.0000
 Hartree-type preconditioning will be used
 using additional bands          216
 real space projection scheme for non local part
 use partial core corrections
 calculate Harris-corrections to forces 
   (improved forces if not selfconsistent)
 use gradient corrections 
 use of overlap-Matrix (Vanderbilt PP)
 Gauss-broadening in eV      SIGMA  =   0.03


--------------------------------------------------------------------------------------------------------


  energy-cutoff  :      450.00
  volume of cell :     7180.20
      direct lattice vectors                 reciprocal lattice vectors
    20.360471435  0.000000000  0.000000000     0.049114776 -0.028356429  0.000000000
    10.180235718 17.632685496  0.000000000     0.000000000  0.056712859  0.000000000
     0.000000000  0.000000000 20.000000000     0.000000000  0.000000000  0.050000000

  length of vectors
    20.360471435 20.360471435 20.000000000     0.056712859  0.056712859  0.050000000


 
 k-points in units of 2pi/SCALE and weight: K-POINTS                                
   0.00000000  0.00000000  0.00000000       0.111
   0.01637159 -0.00945214  0.00000000       0.222
   0.00000000  0.01890429  0.00000000       0.222
   0.01637159  0.00945214  0.00000000       0.222
  -0.01637159  0.02835643  0.00000000       0.222
 
 k-points in reciprocal lattice and weights: K-POINTS                                
   0.00000000  0.00000000  0.00000000       0.111
   0.33333333  0.00000000  0.00000000       0.222
   0.00000000  0.33333333  0.00000000       0.222
   0.33333333  0.33333333  0.00000000       0.222
  -0.33333333  0.33333333  0.00000000       0.222
 
 position of ions in fractional coordinates (direct lattice) 
   0.00000000  0.00000000  0.00000000
   0.08333333  0.08333333  0.00000000
   0.16666667  0.16666667  0.00000000
   0.25000000  0.00000000  0.00000000
   0.33333333  0.08333333  0.00000000
   0.41666667  0.16666667  0.00000000
   0.00000000  0.25000000  0.00000000
   0.08333333  0.33333333  0.00000000
   0.16666667  0.41666667  0.00000000
   0.25000000  0.25000000  0.00000000
   0.33333333  0.33333333  0.00000000
   0.41666667  0.41666667  0.00000000
   0.08333333  0.00000000  0.11997523
   0.00000000  0.16666667  0.11997523
   0.16666667  0.08333333  0.11997523
   0.33333333  0.00000000  0.11997523
   0.25000000  0.16666667  0.11997523
   0.41666667  0.08333333  0.11997523
   0.08333333  0.25000000  0.11997523
   1.00000000  0.41666667  0.11997523
   0.16666667  0.33333333  0.11997523
   0.33333333  0.25000000  0.11997523
   0.25000000  0.41666667  0.11997523
   0.41666667  0.33333333  0.11997523
   0.00023217  0.08305915  0.23797774
   0.16677830  0.99987257  0.23801768
   0.08341992  0.16656294  0.23802084
   0.25001234  0.08330588  0.23801319
   0.41662252  0.00006876  0.23799450
   0.33329409  0.16667377  0.23805749
   0.00005207  0.33315900  0.23803322
   0.16664816  0.24990544  0.23801154
   0.08302475  0.41647780  0.23802281
   0.24952529  0.33339055  0.23762008
   0.41658708  0.24952708  0.23754429
   0.33364848  0.41638414  0.23847476
   0.00027733  0.99972639  0.35828377
   0.08353510  0.08317112  0.35846765
   0.16661823  0.16650777  0.35851528
   0.24995921  0.99999195  0.35842581
   0.33328907  0.08312270  0.35834894
   0.41660669  0.16598005  0.35869232
   0.00048802  0.24957804  0.35857763
   0.08334096  0.33317779  0.35854047
   0.16611449  0.41626286  0.35857607
   0.24968777  0.24951665  0.35862867
   0.33262483  0.33194055  0.35764883
   0.41725104  0.41409451  0.35901533
   1.00000000  0.50000000  0.00000000
   0.08333333  0.58333333  0.00000000
   0.16666667  0.66666667  0.00000000
   0.25000000  0.50000000  0.00000000
   0.33333333  0.58333333  0.00000000
   0.41666667  0.66666667  0.00000000
   1.00000000  0.75000000  0.00000000
   0.08333333  0.83333333  0.00000000
   0.16666667  0.91666667  0.00000000
   0.25000000  0.75000000  0.00000000
   0.33333333  0.83333333  0.00000000
   0.41666667  0.91666667  0.00000000
   0.08333333  0.50000000  0.11997523
   0.00000000  0.66666667  0.11997523
   0.16666667  0.58333333  0.11997523
   0.33333333  0.50000000  0.11997523
   0.25000000  0.66666667  0.11997523
   0.41666667  0.58333333  0.11997523
   0.08333333  0.75000000  0.11997523
   1.00000000  0.91666667  0.11997523
   0.16666667  0.83333333  0.11997523
   0.33333333  0.75000000  0.11997523
   0.25000000  0.91666667  0.11997523
   0.41666667  0.83333333  0.11997523
   0.99961577  0.58349116  0.23793239
   0.16548781  0.50004930  0.23679937
   0.08337079  0.66664809  0.23793080
   0.25040506  0.58358344  0.23808811
   0.41669932  0.49933215  0.23937112
   0.33370896  0.66679950  0.23797648
   0.00018974  0.83311351  0.23807317
   0.16679936  0.75003453  0.23798790
   0.08353287  0.91641495  0.23801417
   0.25012433  0.83331713  0.23800376
   0.41670290  0.75053108  0.23768346
   0.33328237  0.91673774  0.23805209
   0.99992491  0.49996670  0.35844707
   0.08155666  0.58435957  0.35851169
   0.16640649  0.66718776  0.35848685
   0.24641042  0.50101340  0.35422962
   0.33394922  0.58518168  0.35784873
   0.41782681  0.66769758  0.35785099
   0.99985244  0.75017401  0.35856359
   0.08339589  0.83326625  0.35851920
   0.16664879  0.91681032  0.35846010
   0.24975962  0.75087945  0.35863760
   0.33336957  0.83350733  0.35858840
   0.41664298  0.91671089  0.35837557
   0.50000000  0.00000000  0.00000000
   0.58333333  0.08333333  0.00000000
   0.66666667  0.16666667  0.00000000
   0.75000000  0.00000000  0.00000000
   0.83333333  0.08333333  0.00000000
   0.91666667  0.16666667  0.00000000
   0.50000000  0.25000000  0.00000000
   0.58333333  0.33333333  0.00000000
   0.66666667  0.41666667  0.00000000
   0.75000000  0.25000000  0.00000000
   0.83333333  0.33333333  0.00000000
   0.91666667  0.41666667  0.00000000
   0.58333333  0.00000000  0.11997523
   0.50000000  0.16666667  0.11997523
   0.66666667  0.08333333  0.11997523
   0.83333333  0.00000000  0.11997523
   0.75000000  0.16666667  0.11997523
   0.91666667  0.08333333  0.11997523
   0.58333333  0.25000000  0.11997523
   0.50000000  0.41666667  0.11997523
   0.66666667  0.33333333  0.11997523
   0.83333333  0.25000000  0.11997523
   0.75000000  0.41666667  0.11997523
   0.91666667  0.33333333  0.11997523
   0.50010371  0.08324837  0.23805413
   0.66675142  0.99984373  0.23800834
   0.58394232  0.16609333  0.23745572
   0.75060825  0.08251281  0.23794468
   0.91694170  0.99963937  0.23800945
   0.83395318  0.16612377  0.23795495
   0.49981732  0.33317960  0.23845333
   0.66801028  0.24840152  0.23692233
   0.58393621  0.41623339  0.23720822
   0.75075980  0.33269239  0.23760472
   0.91698798  0.24971655  0.23799438
   0.83346927  0.41653348  0.23802358
   0.50011628  0.99969656  0.35830446
   0.58400085  0.08205568  0.35865881
   0.66749639  0.16531548  0.35849163
   0.75034036  0.99948486  0.35852978
   0.83378776  0.08283677  0.35846774
   0.91745916  0.16607117  0.35864478
   0.50101921  0.24696125  0.35733763
   0.58704881  0.33082640  0.35465986
   0.66921103  0.41573220  0.35709557
   0.75181832  0.24880098  0.35851417
   0.83469192  0.33258244  0.35848825
   0.91694063  0.41645853  0.35835789
   0.50000000  0.50000000  0.00000000
   0.58333333  0.58333333  0.00000000
   0.66666667  0.66666667  0.00000000
   0.75000000  0.50000000  0.00000000
   0.83333333  0.58333333  0.00000000
   0.91666667  0.66666667  0.00000000
   0.50000000  0.75000000  0.00000000
   0.58333333  0.83333333  0.00000000
   0.66666667  0.91666667  0.00000000
   0.75000000  0.75000000  0.00000000
   0.83333333  0.83333333  0.00000000
   0.91666667  0.91666667  0.00000000
   0.58333333  0.50000000  0.11997523
   0.50000000  0.66666667  0.11997523
   0.66666667  0.58333333  0.11997523
   0.83333333  0.50000000  0.11997523
   0.75000000  0.66666667  0.11997523
   0.91666667  0.58333333  0.11997523
   0.58333333  0.75000000  0.11997523
   0.50000000  0.91666667  0.11997523
   0.66666667  0.83333333  0.11997523
   0.83333333  0.75000000  0.11997523
   0.75000000  0.91666667  0.11997523
   0.91666667  0.83333333  0.11997523
   0.50002208  0.58379198  0.23754049
   0.66696427  0.50013920  0.23766195
   0.58341981  0.66693752  0.23789431
   0.75008562  0.58331334  0.23803398
   0.91657185  0.49995896  0.23804723
   0.83333338  0.66666951  0.23805293
   0.50005819  0.83341034  0.23803499
   0.66672465  0.74998979  0.23803158
   0.58336034  0.91661286  0.23800817
   0.75008067  0.83322146  0.23803093
   0.91675852  0.74994477  0.23805958
   0.83344905  0.91636667  0.23801273
   0.50266196  0.49969226  0.35582829
   0.58462731  0.58344718  0.35817600
   0.66708298  0.66675385  0.35856129
   0.75070061  0.49983430  0.35841419
   0.83342485  0.58330573  0.35841851
   0.91625594  0.66687463  0.35858450
   0.50049467  0.75021914  0.35854252
   0.58351479  0.83322967  0.35843584
   0.66688892  0.91618941  0.35839008
   0.75007201  0.74992642  0.35858700
   0.83329507  0.83319897  0.35849465
   0.91670951  0.91647169  0.35836465
   0.58418784  0.44074058  0.52644152
   0.50425720  0.45886655  0.51328611
   0.44350278  0.53337226  0.51168634
   0.36770916  0.55132779  0.50515922
   0.35106113  0.49185544  0.50085098
   0.41191650  0.41619903  0.49431731
   0.48769295  0.39926785  0.50507027
   0.54452524  0.32509004  0.50944001
   0.27779968  0.50629907  0.50468098
   0.45574980  0.57950196  0.51729236
   0.32182481  0.60988872  0.51015870
   0.39949231  0.36987898  0.49492480
   0.59902118  0.31332135  0.50472932
   0.53454797  0.28435006  0.49088669
   0.23490022  0.56001273  0.49608563
   0.26647278  0.46447792  0.49270066
   0.60587455  0.40919594  0.57376850
   0.58781493  0.49267576  0.52918012
   0.62328710  0.40508297  0.48625313
 
 position of ions in cartesian coordinates  (Angst):
   0.00000000  0.00000000  0.00000000
   2.54505893  1.46939046  0.00000000
   5.09011786  2.93878092  0.00000000
   5.09011786  0.00000000  0.00000000
   7.63517679  1.46939046  0.00000000
  10.18023572  2.93878092  0.00000000
   2.54505893  4.40817137  0.00000000
   5.09011786  5.87756183  0.00000000
   7.63517679  7.34695229  0.00000000
   7.63517679  4.40817137  0.00000000
  10.18023572  5.87756183  0.00000000
  12.72529465  7.34695229  0.00000000
   1.69670595  0.00000000  2.39950457
   1.69670595  2.93878092  2.39950457
   4.24176488  1.46939046  2.39950457
   6.78682381  0.00000000  2.39950457
   6.78682381  2.93878092  2.39950457
   9.33188274  1.46939046  2.39950457
   4.24176488  4.40817137  2.39950457
  24.60223632  7.34695229  2.39950457
   6.78682381  5.87756183  2.39950457
   9.33188274  4.40817137  2.39950457
   9.33188274  7.34695229  2.39950457
  11.87694167  5.87756183  2.39950457
   0.85028883  1.46455588  4.75955486
  13.57462334 17.63043860  4.76035355
   3.39411888  2.93695191  4.76041672
   5.93844254  1.46890634  4.76026372
   8.48333094  0.00121239  4.75988996
   8.48280317  2.93890625  4.76114974
   3.39269719  5.87448778  4.76066443
   5.93713149  4.40650404  4.76023082
   5.93026517  7.34362208  4.76045610
   8.47444693  5.87857080  4.75240170
  11.02215393  4.39983260  4.75088589
  11.03212902  7.34197059  4.76949514
  10.18309692 17.62786108  7.16567546
   2.54751577  1.46653029  7.16935309
   5.08751413  2.93597920  7.17030570
  15.26944108 17.63254355  7.16851627
   7.63213123  1.46567648  7.16697872
  10.17202468  2.92667404  7.17384634
   2.55069954  4.40073106  7.17155251
   5.08868961  5.87481922  7.17080947
   7.61982338  7.33983215  7.17152147
   7.62389903  4.39964858  7.17257332
  10.15163133  5.85300326  7.15297657
  12.71100769  7.30159829  7.18030663
  25.45058929  8.81634275  0.00000000
   7.63517679 10.28573321  0.00000000
  10.18023572 11.75512366  0.00000000
  10.18023572  8.81634275  0.00000000
  12.72529465 10.28573321  0.00000000
  15.27035358 11.75512366  0.00000000
  27.99564822 13.22451412  0.00000000
  10.18023572 14.69390458  0.00000000
  12.72529465 16.16329504  0.00000000
  12.72529465 13.22451412  0.00000000
  15.27035358 14.69390458  0.00000000
  17.81541251 16.16329504  0.00000000
   6.78682381  8.81634275  2.39950457
   6.78682381 11.75512366  2.39950457
   9.33188274 10.28573321  2.39950457
  11.87694167  8.81634275  2.39950457
  11.87694167 11.75512366  2.39950457
  14.42200060 10.28573321  2.39950457
   9.33188274 13.22451412  2.39950457
  29.69235418 16.16329504  2.39950457
  11.87694167 14.69390458  2.39950457
  14.42200060 13.22451412  2.39950457
  14.42200060 16.16329504  2.39950457
  16.96705953 14.69390458  2.39950457
  26.29272588 10.28851614  4.75864780
   8.46002966  8.81721209  4.73598744
   8.48410339 11.75479613  4.75861591
  11.03938200 10.29014322  4.76176216
  13.56751353  8.80456669  4.78742243
  13.58264785 11.75746579  4.75952965
   8.48515511 14.69002851  4.76146341
  11.03164186 13.22512292  4.75975796
  11.03008877 16.15885654  4.76028349
  13.57601411 14.69361892  4.76007529
  16.12485074 13.23387853  4.75366920
  16.11839250 16.16454817  4.76104184
  25.44872133  8.81575554  7.16894135
   7.60945026 10.30382844  7.17023380
  10.18024322 11.76431199  7.16973696
  10.11746690  8.83421166  7.08459247
  12.75665099 10.31832448  7.15697450
  15.30446954 11.77330152  7.15701979
  27.99441527 13.22758243  7.17127180
  10.18082651 14.69272176  7.17038404
  12.72639303 16.16582804  7.16920205
  12.72935338 13.24002119  7.17275209
  15.27286269 14.69697255  7.17176801
  17.81538040 16.16407477  7.16751142
  10.18023572  0.00000000  0.00000000
  12.72529465  1.46939046  0.00000000
  15.27035358  2.93878092  0.00000000
  15.27035358  0.00000000  0.00000000
  17.81541251  1.46939046  0.00000000
  20.36047144  2.93878092  0.00000000
  12.72529465  4.40817137  0.00000000
  15.27035358  5.87756183  0.00000000
  17.81541251  7.34695229  0.00000000
  17.81541251  4.40817137  0.00000000
  20.36047144  5.87756183  0.00000000
  22.90553036  7.34695229  0.00000000
  11.87694167  0.00000000  2.39950457
  11.87694167  2.93878092  2.39950457
  14.42200060  1.46939046  2.39950457
  16.96705953  0.00000000  2.39950457
  16.96705953  2.93878092  2.39950457
  19.51211846  1.46939046  2.39950457
  14.42200060  4.40817137  2.39950457
  14.42200060  7.34695229  2.39950457
  16.96705953  5.87756183  2.39950457
  19.51211846  4.40817137  2.39950457
  19.51211846  7.34695229  2.39950457
  22.05717739  5.87756183  2.39950457
  11.02983537  1.46789231  4.76108262
  23.75401808 17.62993001  4.76016680
  13.58021010  2.92867147  4.74911439
  16.12273771  1.45492236  4.75889351
  28.84592969 17.62632659  4.76018910
  18.67085902  2.92920826  4.75909892
  13.56836314  5.87485113  4.76906654
  16.12979031  4.37998582  4.73844658
  16.12657054  7.33931248  4.74416444
  18.67271039  5.86626021  4.75209437
  21.21248094  4.40317344  4.75988766
  21.21023625  7.34460389  4.76047166
  20.35974981 17.62733507  7.16608916
  12.72587882  1.44686194  7.17317629
  15.27349176  2.91495584  7.16983263
  25.45227493 17.62360223  7.17059560
  17.81960962  1.46063471  7.16935471
  20.37054480  2.92828079  7.17289570
  12.71511114  4.35459005  7.14675252
  15.32048134  5.83335794  7.09319729
  17.85770390  7.33047510  7.14191132
  17.84022811  4.38702939  7.17028341
  20.38048854  5.86432154  7.16976494
  22.90898956  7.34328230  7.16715787
  15.27035358  8.81634275  0.00000000
  17.81541251 10.28573321  0.00000000
  20.36047143 11.75512366  0.00000000
  20.36047144  8.81634275  0.00000000
  22.90553036 10.28573321  0.00000000
  25.45058929 11.75512366  0.00000000
  17.81541251 13.22451412  0.00000000
  20.36047144 14.69390458  0.00000000
  22.90553036 16.16329504  0.00000000
  22.90553036 13.22451412  0.00000000
  25.45058929 14.69390458  0.00000000
  27.99564822 16.16329504  0.00000000
  16.96705953  8.81634275  2.39950457
  16.96705953 11.75512366  2.39950457
  19.51211846 10.28573321  2.39950457
  22.05717739  8.81634275  2.39950457
  22.05717739 11.75512366  2.39950457
  24.60223632 10.28573321  2.39950457
  19.51211846 13.22451412  2.39950457
  19.51211846 16.16329504  2.39950457
  22.05717739 14.69390458  2.39950457
  24.60223632 13.22451412  2.39950457
  24.60223632 16.16329504  2.39950457
  27.14729525 14.69390458  2.39950457
  16.12382532 10.29382036  4.75080971
  18.67124189  8.81879720  4.75323904
  18.66828342 11.75989949  4.75788619
  21.21036411 10.28538074  4.76067958
  23.75153500  8.81561903  4.76094470
  23.75391320 11.75517388  4.76105851
  18.66573416 14.69526234  4.76069988
  21.20990116 13.22433415  4.76063160
  21.20882657 16.16234620  4.76016331
  23.75438701 14.69193198  4.76061865
  26.30025005 13.22354019  4.76119164
  26.29824429 16.15800521  4.76025451
  15.32141952  8.81091647  7.11656583
  17.84291758 10.28774069  7.16352003
  20.36983533 11.75666100  7.17122575
  20.37304927  8.81342107  7.16828388
  22.90711254 10.28524641  7.16837020
  25.44434386 11.75879067  7.17169005
  17.82771513 13.22837820  7.17085048
  20.36311059 14.69207667  7.16871686
  22.90519685 16.15487965  7.16780150
  22.90624746 13.22321670  7.17173996
  25.44844237 14.69153535  7.16989291
  27.99453567 16.15985704  7.16729306
  16.38118292  7.77144005 10.52883043
  14.93828398  8.09104951 10.26572227
  14.45978103  9.40478526 10.23372677
  13.09937875  9.72138956 10.10318442
  12.15497445  8.67273229 10.01701965
  12.62381847  7.33870664  9.88634616
  13.99429924  7.04016435 10.10140535
  14.39628386  5.73221051 10.18880021
  10.81037641  8.92741227 10.09361957
  15.17874734 10.21817580 10.34584719
  12.76131581 10.75397596 10.20317399
  11.89930696  6.52195968  9.89849594
  15.38603876  5.52469676 10.09458640
  13.77839932  5.01385521  9.81773373
  10.48374088  9.87452839  9.92171251
  10.15400611  8.18999302  9.85401321
  16.50160254  7.21522340 11.47536996
  16.98374444  8.68719670 10.58360237
  16.81425941  7.14270065  9.72506262
 


--------------------------------------------------------------------------------------------------------


 k-point  1 :   0.0000 0.0000 0.0000  plane waves:  155667
 k-point  2 :   0.3333 0.0000 0.0000  plane waves:  155683
 k-point  3 :   0.0000 0.3333 0.0000  plane waves:  155683
 k-point  4 :   0.3333 0.3333 0.0000  plane waves:  155683
 k-point  5 :  -0.3333 0.3333 0.0000  plane waves:  155607

 maximum and minimum number of plane-waves per node :     38947    38880

 maximum number of plane-waves:    155683
 maximum index in each direction: 
   IXMAX=   35   IYMAX=   35   IZMAX=   34
   IXMIN=  -35   IYMIN=  -35   IZMIN=  -34


 real space projection operators:
  total allocation   :      56913.36 KBytes
  max/ min on nodes  :      14231.68      14222.93


 parallel 3D FFT for wavefunctions:
    minimum data exchange during FFTs selected (reduces bandwidth)
 parallel 3D FFT for charge:
    minimum data exchange during FFTs selected (reduces bandwidth)


 total amount of memory used by VASP MPI-rank0   447235. kBytes
=======================================================================

   base      :      30000. kBytes
   nonlr-proj:      25204. kBytes
   fftplans  :      17430. kBytes
   grid      :      29560. kBytes
   one-center:        824. kBytes
   wavefun   :     344217. kBytes
 
     INWAV:  cpu time    0.0000: real time    0.0003
 Broyden mixing: mesh for mixing (old mesh)
   NGX = 71   NGY = 71   NGZ = 69
  (NGX  =216   NGY  =216   NGZ  =216)
  gives a total of 347829 points

 initial charge density was supplied:
 charge density of overlapping atoms calculated
 number of electron    2160.0000000 magnetization 
 keeping initial charge density in first step


--------------------------------------------------------------------------------------------------------


 Maximum index for non-local projection operator          540
 Maximum index for augmentation-charges          527 (set IRDMAX)


--------------------------------------------------------------------------------------------------------


 First call to EWALD:  gamma=   0.092
 Maximum number of real-space cells 3x 3x 3
 Maximum number of reciprocal cells 3x 3x 3

    FEWALD:  cpu time    0.0096: real time    0.0096


--------------------------------------- Iteration      1(   1)  ---------------------------------------


    POTLOK:  cpu time    0.1843: real time    0.1953
    SETDIJ:  cpu time    0.0179: real time    0.0226
     EDDAV:  cpu time  148.5679: real time  149.0932
       DOS:  cpu time    0.0020: real time    0.0020
    --------------------------------------------
      LOOP:  cpu time  148.7721: real time  149.3132

 eigenvalue-minimisations  : 12996
 total energy-change (2. order) : 0.1369023E+05  (-0.9351162E+05)
 number of electron    2160.0000000 magnetization 
 augmentation part     2160.0000000 magnetization 

 DIPCOR: dipole corrections for dipol
 direction  3 min pos   155,
 dipolmoment           0.000000      0.000000     -0.014248 electrons x Angstroem
 Tr[quadrupol]   -154727.309929

 energy correction for charged system         0.000000 eV
 dipol+quadrupol energy correction           -0.000003 eV
 added-field ion interaction         -0.441724 eV  (added to PSCEN)


 Free energy of the ion-electron system (eV)
  ---------------------------------------------------
  alpha Z        PSCENC =      6179.21667570
  Ewald energy   TEWEN  =    342049.47360364
  -Hartree energ DENC   =   -532693.15880311
  -exchange      EXHF   =         0.00000000
  -V(xc)+E(xc)   XCENC  =      3088.47098572
  PAW double counting   =    169017.58070598  -164591.26253514
  entropy T*S    EENTRO =        -0.04613452
  eigenvalues    EBANDS =     11148.51074239
  atomic energy  EATOM  =    179491.44305644
  Solvation  Ediel_sol  =         0.00000000
  ---------------------------------------------------
  free energy    TOTEN  =     13690.22829711 eV

  energy without entropy =    13690.27443163  energy(sigma->0) =    13690.25136437


--------------------------------------------------------------------------------------------------------




--------------------------------------- Iteration      1(   2)  ---------------------------------------


     EDDAV:  cpu time  161.9761: real time  162.7861
       DOS:  cpu time    0.0019: real time    0.0019
    --------------------------------------------
      LOOP:  cpu time  161.9780: real time  162.7880

 eigenvalue-minimisations  : 14532
 total energy-change (2. order) :-0.1362183E+05  (-0.1267115E+05)
 number of electron    2160.0000000 magnetization 
 augmentation part     2160.0000000 magnetization 

 DIPCOR: dipole corrections for dipol
 direction  3 min pos   155,
 dipolmoment           0.000000      0.000000     -0.014248 electrons x Angstroem
 Tr[quadrupol]   -154727.309929

 energy correction for charged system         0.000000 eV
 dipol+quadrupol energy correction           -0.000003 eV
 added-field ion interaction         -0.441724 eV  (added to PSCEN)


 Free energy of the ion-electron system (eV)
  ---------------------------------------------------
  alpha Z        PSCENC =      6179.21667570
  Ewald energy   TEWEN  =    342049.47360364
  -Hartree energ DENC   =   -532693.15880311
  -exchange      EXHF   =         0.00000000
  -V(xc)+E(xc)   XCENC  =      3088.47098572
  PAW double counting   =    169017.58070598  -164591.26253514
  entropy T*S    EENTRO =        -0.02878387
  eigenvalues    EBANDS =     -2473.33574390
  atomic energy  EATOM  =    179491.44305644
  Solvation  Ediel_sol  =         0.00000000
  ---------------------------------------------------
  free energy    TOTEN  =        68.39916146 eV

  energy without entropy =       68.42794533  energy(sigma->0) =       68.41355340


--------------------------------------------------------------------------------------------------------




--------------------------------------- Iteration      1(   3)  ---------------------------------------


     EDDAV:  cpu time  163.1051: real time  164.0846
       DOS:  cpu time    0.0019: real time    0.0019
    --------------------------------------------
      LOOP:  cpu time  163.1070: real time  164.0866

 eigenvalue-minimisations  : 14664
 total energy-change (2. order) :-0.8101475E+03  (-0.7711305E+03)
 number of electron    2160.0000000 magnetization 
 augmentation part     2160.0000000 magnetization 

 DIPCOR: dipole corrections for dipol
 direction  3 min pos   155,
 dipolmoment           0.000000      0.000000     -0.014248 electrons x Angstroem
 Tr[quadrupol]   -154727.309929

 energy correction for charged system         0.000000 eV
 dipol+quadrupol energy correction           -0.000003 eV
 added-field ion interaction         -0.441724 eV  (added to PSCEN)


 Free energy of the ion-electron system (eV)
  ---------------------------------------------------
  alpha Z        PSCENC =      6179.21667570
  Ewald energy   TEWEN  =    342049.47360364
  -Hartree energ DENC   =   -532693.15880311
  -exchange      EXHF   =         0.00000000
  -V(xc)+E(xc)   XCENC  =      3088.47098572
  PAW double counting   =    169017.58070598  -164591.26253514
  entropy T*S    EENTRO =        -0.04959638
  eigenvalues    EBANDS =     -3283.46238758
  atomic energy  EATOM  =    179491.44305644
  Solvation  Ediel_sol  =         0.00000000
  ---------------------------------------------------
  free energy    TOTEN  =      -741.74829473 eV

  energy without entropy =     -741.69869835  energy(sigma->0) =     -741.72349654


--------------------------------------------------------------------------------------------------------




--------------------------------------- Iteration      1(   4)  ---------------------------------------


     EDDAV:  cpu time  164.6417: real time  165.4284
       DOS:  cpu time    0.0020: real time    0.0020
    --------------------------------------------
      LOOP:  cpu time  164.6436: real time  165.4304

 eigenvalue-minimisations  : 14820
 total energy-change (2. order) :-0.2454766E+02  (-0.2423909E+02)
 number of electron    2160.0000000 magnetization 
 augmentation part     2160.0000000 magnetization 

 DIPCOR: dipole corrections for dipol
 direction  3 min pos   155,
 dipolmoment           0.000000      0.000000     -0.014248 electrons x Angstroem
 Tr[quadrupol]   -154727.309929

 energy correction for charged system         0.000000 eV
 dipol+quadrupol energy correction           -0.000003 eV
 added-field ion interaction         -0.441724 eV  (added to PSCEN)


 Free energy of the ion-electron system (eV)
  ---------------------------------------------------
  alpha Z        PSCENC =      6179.21667570
  Ewald energy   TEWEN  =    342049.47360364
  -Hartree energ DENC   =   -532693.15880311
  -exchange      EXHF   =         0.00000000
  -V(xc)+E(xc)   XCENC  =      3088.47098572
  PAW double counting   =    169017.58070598  -164591.26253514
  entropy T*S    EENTRO =        -0.05003692
  eigenvalues    EBANDS =     -3308.00960248
  atomic energy  EATOM  =    179491.44305644
  Solvation  Ediel_sol  =         0.00000000
  ---------------------------------------------------
  free energy    TOTEN  =      -766.29595017 eV

  energy without entropy =     -766.24591324  energy(sigma->0) =     -766.27093170


--------------------------------------------------------------------------------------------------------




--------------------------------------- Iteration      1(   5)  ---------------------------------------


     EDDAV:  cpu time  168.1443: real time  169.1618
       DOS:  cpu time    0.0020: real time    0.0020
    --------------------------------------------
      LOOP:  cpu time  168.1463: real time  169.1638

 eigenvalue-minimisations  : 15252
 total energy-change (2. order) :-0.9154925E+00  (-0.9125778E+00)
 number of electron    2160.0000000 magnetization 
 augmentation part     2160.0000000 magnetization 

 DIPCOR: dipole corrections for dipol
 direction  3 min pos   155,
 dipolmoment           0.000000      0.000000     -0.014248 electrons x Angstroem
 Tr[quadrupol]   -154727.309929

 energy correction for charged system         0.000000 eV
 dipol+quadrupol energy correction           -0.000003 eV
 added-field ion interaction         -0.441724 eV  (added to PSCEN)


 Free energy of the ion-electron system (eV)
  ---------------------------------------------------
  alpha Z        PSCENC =      6179.21667570
  Ewald energy   TEWEN  =    342049.47360364
  -Hartree energ DENC   =   -532693.15880311
  -exchange      EXHF   =         0.00000000
  -V(xc)+E(xc)   XCENC  =      3088.47098572
  PAW double counting   =    169017.58070598  -164591.26253514
  entropy T*S    EENTRO =        -0.05000771
  eigenvalues    EBANDS =     -3308.92512420
  atomic energy  EATOM  =    179491.44305644
  Solvation  Ediel_sol  =         0.00000000
  ---------------------------------------------------
  free energy    TOTEN  =      -767.21144268 eV

  energy without entropy =     -767.16143496  energy(sigma->0) =     -767.18643882


--------------------------------------------------------------------------------------------------------




--------------------------------------- Iteration      1(   6)  ---------------------------------------


     EDDAV:  cpu time  180.1606: real time  181.1731
       DOS:  cpu time    0.0019: real time    0.0019
    --------------------------------------------
      LOOP:  cpu time  180.1626: real time  181.1750

 eigenvalue-minimisations  : 16488
 total energy-change (2. order) :-0.4700952E-01  (-0.4698506E-01)
 number of electron    2160.0000000 magnetization 
 augmentation part     2160.0000000 magnetization 

 DIPCOR: dipole corrections for dipol
 direction  3 min pos   155,
 dipolmoment           0.000000      0.000000     -0.014248 electrons x Angstroem
 Tr[quadrupol]   -154727.309929

 energy correction for charged system         0.000000 eV
 dipol+quadrupol energy correction           -0.000003 eV
 added-field ion interaction         -0.441724 eV  (added to PSCEN)


 Free energy of the ion-electron system (eV)
  ---------------------------------------------------
  alpha Z        PSCENC =      6179.21667570
  Ewald energy   TEWEN  =    342049.47360364
  -Hartree energ DENC   =   -532693.15880311
  -exchange      EXHF   =         0.00000000
  -V(xc)+E(xc)   XCENC  =      3088.47098572
  PAW double counting   =    169017.58070598  -164591.26253514
  entropy T*S    EENTRO =        -0.04999895
  eigenvalues    EBANDS =     -3308.97214248
  atomic energy  EATOM  =    179491.44305644
  Solvation  Ediel_sol  =         0.00000000
  ---------------------------------------------------
  free energy    TOTEN  =      -767.25845220 eV

  energy without entropy =     -767.20845325  energy(sigma->0) =     -767.23345272


--------------------------------------------------------------------------------------------------------




--------------------------------------- Iteration      1(   7)  ---------------------------------------


     EDDAV:  cpu time  193.1317: real time  193.9942
       DOS:  cpu time    0.0019: real time    0.0019
    CHARGE:  cpu time    6.9512: real time    6.9546
    MIXING:  cpu time    0.0059: real time    0.0065
    --------------------------------------------
      LOOP:  cpu time  200.0908: real time  200.9573

 eigenvalue-minimisations  : 18060
 total energy-change (2. order) :-0.1528125E-02  (-0.1527942E-02)
 number of electron    2159.9997838 magnetization 
 augmentation part      743.1005982 magnetization 

 DIPCOR: dipole corrections for dipol
 direction  3 min pos   155,
 dipolmoment           0.000000      0.000000     -0.014248 electrons x Angstroem
 Tr[quadrupol]   -154727.309929

 energy correction for charged system         0.000000 eV
 dipol+quadrupol energy correction           -0.000003 eV
 added-field ion interaction         -0.441724 eV  (added to PSCEN)


 Broyden mixing:
  rms(total) = 0.99431E+01    rms(broyden)= 0.99426E+01
  rms(prec ) = 0.10285E+02
  weight for this iteration     100.00

 Free energy of the ion-electron system (eV)
  ---------------------------------------------------
  alpha Z        PSCENC =      6179.21667570
  Ewald energy   TEWEN  =    342049.47360364
  -Hartree energ DENC   =   -532693.15880311
  -exchange      EXHF   =         0.00000000
  -V(xc)+E(xc)   XCENC  =      3088.47098572
  PAW double counting   =    169017.58070598  -164591.26253514
  entropy T*S    EENTRO =        -0.04999899
  eigenvalues    EBANDS =     -3308.97367057
  atomic energy  EATOM  =    179491.44305644
  Solvation  Ediel_sol  =         0.00000000
  ---------------------------------------------------
  free energy    TOTEN  =      -767.25998033 eV

  energy without entropy =     -767.20998133  energy(sigma->0) =     -767.23498083


--------------------------------------------------------------------------------------------------------




--------------------------------------- Iteration      1(   8)  ---------------------------------------


    POTLOK:  cpu time    0.1687: real time    0.1693
    SETDIJ:  cpu time    0.0176: real time    0.0176
    EDDIAG:  cpu time   26.9196: real time   26.9415
  RMM-DIIS:  cpu time   60.9470: real time   60.9786
    ORTHCH:  cpu time    7.8313: real time    7.8343
       DOS:  cpu time    0.0022: real time    0.0022
    CHARGE:  cpu time    6.8930: real time    6.8960
[...]
 total energy-change (2. order) :-0.2379180E-05  (-0.3297745E-05)
 number of electron    2159.9997747 magnetization 
 augmentation part      775.1193715 magnetization 

 DIPCOR: dipole corrections for dipol
 direction  3 min pos   154,
 dipolmoment           0.000000      0.000000     -0.567030 electrons x Angstroem
 Tr[quadrupol]   -154722.325175

 energy correction for charged system         0.000000 eV
 dipol+quadrupol energy correction           -0.004333 eV
 added-field ion interaction        -14.522538 eV  (added to PSCEN)


 eigenvalues of (default mixing * dielectric matrix)
  average eigenvalue GAMMA=   0.9894
  0.9894

  free energy =  -0.703579968803E+03  energy without entropy=  -0.703509210948E+03


--------------------------------------------------------------------------------------------------------




--------------------------------------- Iteration      3(   3)  ---------------------------------------


    POTLOK:  cpu time    0.1756: real time    0.1774
    SETDIJ:  cpu time    0.0176: real time    0.0176
    EDDIAG:  cpu time   26.7591: real time   26.8989
  RMM-DIIS:  cpu time   34.7555: real time   34.8399
    ORTHCH:  cpu time    7.7288: real time    7.7345
       DOS:  cpu time    0.0021: real time    0.0021
    CHARGE:  cpu time    6.7739: real time    6.9908
    MIXING:  cpu time    0.0064: real time    0.0064
    --------------------------------------------
      LOOP:  cpu time   76.2190: real time   76.6674

 eigenvalue-minimisations  :  6885
 total energy-change (2. order) : 0.1735461E-06  (-0.2177204E-06)
 number of electron    2159.9997747 magnetization 
 augmentation part      775.1193675 magnetization 

 DIPCOR: dipole corrections for dipol
 direction  3 min pos   154,
 dipolmoment           0.000000      0.000000     -0.566723 electrons x Angstroem
 Tr[quadrupol]   -154722.326229

 energy correction for charged system         0.000000 eV
 dipol+quadrupol energy correction           -0.004328 eV
 added-field ion interaction        -14.514678 eV  (added to PSCEN)


 eigenvalues of (default mixing * dielectric matrix)
  average eigenvalue GAMMA=   1.1829
  0.7246  1.6411

  free energy =  -0.703579968630E+03  energy without entropy=  -0.703509210924E+03


--------------------------------------------------------------------------------------------------------




--------------------------------------- Iteration      3(   4)  ---------------------------------------


    POTLOK:  cpu time    0.1738: real time    0.1739
    SETDIJ:  cpu time    0.0176: real time    0.0176
    EDDIAG:  cpu time   26.9173: real time   26.9327
  RMM-DIIS:  cpu time   24.9590: real time   25.2060
    ORTHCH:  cpu time    7.8262: real time    7.8294
       DOS:  cpu time    0.0021: real time    0.0021
    CHARGE:  cpu time    6.9559: real time    6.9599
    MIXING:  cpu time    0.0064: real time    0.0064
    --------------------------------------------
      LOOP:  cpu time   66.8583: real time   67.1280

 eigenvalue-minimisations  :  2695
 total energy-change (2. order) :-0.3268651E-06  (-0.7757357E-07)
 number of electron    2159.9997747 magnetization 
 augmentation part      775.1193337 magnetization 

 DIPCOR: dipole corrections for dipol
 direction  3 min pos   154,
 dipolmoment           0.000000      0.000000     -0.567623 electrons x Angstroem
 Tr[quadrupol]   -154722.326149

 energy correction for charged system         0.000000 eV
 dipol+quadrupol energy correction           -0.004342 eV
 added-field ion interaction        -14.537722 eV  (added to PSCEN)


 eigenvalues of (default mixing * dielectric matrix)
  average eigenvalue GAMMA=   1.0919
  1.9899  0.9143  0.3716

  free energy =  -0.703579968956E+03  energy without entropy=  -0.703509210499E+03


--------------------------------------------------------------------------------------------------------




--------------------------------------- Iteration      3(   5)  ---------------------------------------


    POTLOK:  cpu time    0.1727: real time    0.1740
    SETDIJ:  cpu time    0.0177: real time    0.0177
    EDDIAG:  cpu time   27.0204: real time   27.0322
  RMM-DIIS:  cpu time   23.1280: real time   23.1417
    ORTHCH:  cpu time    7.8682: real time    7.8707
       DOS:  cpu time    0.0020: real time    0.0020
    --------------------------------------------
      LOOP:  cpu time   58.2090: real time   58.2382

 eigenvalue-minimisations  :  1727
 total energy-change (2. order) : 0.3046007E-06  (-0.2253843E-07)
 number of electron    2159.9997747 magnetization 
 augmentation part      775.1193337 magnetization 

 DIPCOR: dipole corrections for dipol
 direction  3 min pos   154,
 dipolmoment           0.000000      0.000000     -0.566755 electrons x Angstroem
 Tr[quadrupol]   -154722.327625

 energy correction for charged system         0.000000 eV
 dipol+quadrupol energy correction           -0.004329 eV
 added-field ion interaction        -14.515497 eV  (added to PSCEN)


  free energy =  -0.703579968652E+03  energy without entropy=  -0.703509211161E+03


--------------------------------------------------------------------------------------------------------




------------------------ aborting loop because EDIFF is reached ----------------------------------------


    CHARGE:  cpu time    6.9263: real time    6.9288
    FORLOC:  cpu time    0.1956: real time    0.1956
    FORNL :  cpu time   25.5445: real time   25.5559
    STRESS:  cpu time   75.3480: real time   75.5553
    FORCOR:  cpu time    0.3374: real time    0.3377
    FORHAR:  cpu time    0.2301: real time    0.2301
    MIXING:  cpu time    0.0064: real time    0.0064
    OFIELD:  cpu time    0.0001: real time    0.0001

  Number of pair interactions contributing to vdW energy:  820155
  Edisp (eV):  -17.31298
    FORVDW:  cpu time    0.1190: real time    0.1190

  FORCE on cell =-STRESS in cart. coord.  units (eV):
  Direction    XX          YY          ZZ          XY          YZ          ZX
  --------------------------------------------------------------------------------------
  Alpha Z  6179.65840  6179.65840  6179.65840
  Ewald  463299.77763462778.71697************  -338.23523    89.77296   264.94774
  Hartree512569.18516512115.36549************  -271.82549    46.28809   175.13459
  E(xc)   -9659.49367 -9659.51303 -9700.73103    -0.11847     0.21746     0.41051
  Local  ************************************   610.26605  -127.95642  -430.02196
  n-local  -377.25548  -378.58913  -259.14303    -0.63254    -0.00468     0.18291
  augment 12985.30381 12985.14303 13063.91672     0.09758    -0.36112    -0.08226
  Kinetic 30037.42546 30032.69659 30408.15476     0.74046    -7.62093   -10.73942
  Fock        0.00000     0.00000     0.00000     0.00000     0.00000     0.00000
  vdW       -23.94038   -23.77786   -18.14012     0.07671    -0.04372    -0.04370
  -------------------------------------------------------------------------------------
  Total    -122.41940  -122.18529    -1.94357     0.36907     0.29164    -0.21159
  in kB     -27.31647   -27.26423    -0.43369     0.08235     0.06508    -0.04721
  external pressure =      -18.34 kB  Pullay stress =        0.00 kB



--------------------------------------------------------------------------------------------------------



  FREE ENERGIE OF THE ION-ELECTRON SYSTEM (eV)
  ---------------------------------------------------
  free  energy   TOTEN  =      -720.89294995 eV

  energy  without entropy=     -720.82219246  energy(sigma->0) =     -720.85757120
 
 d Force = 0.1459262E-04[-0.848E-07, 0.293E-04]  d Energy = 0.1547075E-04-0.878E-06
 d Force =-0.5826946E-01[-0.583E-01,-0.582E-01]  d Ewald  =-0.5826941E-01-0.548E-07


--------------------------------------------------------------------------------------------------------


    POTLOK:  cpu time    0.1938: real time    0.1940


--------------------------------------------------------------------------------------------------------




--------------------------------------------------------------------------------------------------------


    WAVPRE:  cpu time    0.1614: real time    0.1631
    FEWALD:  cpu time    0.0081: real time    0.0081

 real space projection operators:
  total allocation   :      56912.62 KBytes
  max/ min on nodes  :      14231.83      14222.55

    ORTHCH:  cpu time   16.1639: real time   16.1697
     LOOP+:  cpu time  563.8765: real time  565.5571


--------------------------------------- Iteration      4(   1)  ---------------------------------------


    POTLOK:  cpu time    0.1737: real time    0.1741
    SETDIJ:  cpu time    0.0176: real time    0.0176
     EDDAV:  cpu time  149.8949: real time  149.9762
       DOS:  cpu time    0.0020: real time    0.0020
    CHARGE:  cpu time    6.9361: real time    6.9405
    MIXING:  cpu time    0.0054: real time    0.0054
    --------------------------------------------
      LOOP:  cpu time  157.0299: real time  157.1160

 eigenvalue-minimisations  : 13080
 total energy-change (2. order) :-0.1334724E-03  (-0.7258993E-03)
 number of electron    2159.9997747 magnetization 
 augmentation part      775.1194397 magnetization 

 DIPCOR: dipole corrections for dipol
 direction  3 min pos   154,
 dipolmoment           0.000000      0.000000     -0.567082 electrons x Angstroem
 Tr[quadrupol]   -154722.560639

 energy correction for charged system         0.000000 eV
 dipol+quadrupol energy correction           -0.004334 eV
 added-field ion interaction        -14.523891 eV  (added to PSCEN)


  free energy =  -0.703580102429E+03  energy without entropy=  -0.703509330775E+03


--------------------------------------------------------------------------------------------------------




--------------------------------------- Iteration      4(   2)  ---------------------------------------


    POTLOK:  cpu time    0.1720: real time    0.1726
    SETDIJ:  cpu time    0.0179: real time    0.0179
    EDDIAG:  cpu time   26.9514: real time   26.9619
  RMM-DIIS:  cpu time   49.8430: real time   49.8832
    ORTHCH:  cpu time    7.6965: real time    7.6995
       DOS:  cpu time    0.0023: real time    0.0022
    CHARGE:  cpu time    6.9236: real time    6.9257
    MIXING:  cpu time    0.0056: real time    0.0056
    --------------------------------------------
      LOOP:  cpu time   91.6122: real time   91.6685

 eigenvalue-minimisations  : 10487
 total energy-change (2. order) :-0.9458017E-05  (-0.1255111E-04)
 number of electron    2159.9997747 magnetization 
 augmentation part      775.1196620 magnetization 

 DIPCOR: dipole corrections for dipol
 direction  3 min pos   154,
 dipolmoment           0.000000      0.000000     -0.566662 electrons x Angstroem
 Tr[quadrupol]   -154722.559854

 energy correction for charged system         0.000000 eV
 dipol+quadrupol energy correction           -0.004327 eV
 added-field ion interaction        -14.513120 eV  (added to PSCEN)


 eigenvalues of (default mixing * dielectric matrix)
  average eigenvalue GAMMA=   1.0212
  1.0212

  free energy =  -0.703580111887E+03  energy without entropy=  -0.703509351231E+03


--------------------------------------------------------------------------------------------------------




--------------------------------------- Iteration      4(   3)  ---------------------------------------


    POTLOK:  cpu time    0.1719: real time    0.1736
    SETDIJ:  cpu time    0.0176: real time    0.0176
    EDDIAG:  cpu time   26.9302: real time   26.9829
  RMM-DIIS:  cpu time   35.3164: real time   35.3324
    ORTHCH:  cpu time    7.8104: real time    7.8130
       DOS:  cpu time    0.0021: real time    0.0021
    CHARGE:  cpu time    6.9348: real time    6.9383
    MIXING:  cpu time    0.0060: real time    0.0060
    --------------------------------------------
      LOOP:  cpu time   77.1895: real time   77.2658

 eigenvalue-minimisations  :  7094
 total energy-change (2. order) :-0.1708395E-07  (-0.7660210E-06)
 number of electron    2159.9997747 magnetization 
 augmentation part      775.1195763 magnetization 

 DIPCOR: dipole corrections for dipol
 direction  3 min pos   154,
 dipolmoment           0.000000      0.000000     -0.567808 electrons x Angstroem
 Tr[quadrupol]   -154722.559463

 energy correction for charged system         0.000000 eV
 dipol+quadrupol energy correction           -0.004345 eV
 added-field ion interaction        -14.542487 eV  (added to PSCEN)


 eigenvalues of (default mixing * dielectric matrix)
  average eigenvalue GAMMA=   1.0450
  0.8814  1.2087

  free energy =  -0.703580111904E+03  energy without entropy=  -0.703509349668E+03


--------------------------------------------------------------------------------------------------------




--------------------------------------- Iteration      4(   4)  ---------------------------------------


    POTLOK:  cpu time    0.1714: real time    0.1730
    SETDIJ:  cpu time    0.0180: real time    0.0180
    EDDIAG:  cpu time   26.9223: real time   26.9446
  RMM-DIIS:  cpu time   34.9186: real time   34.9328
    ORTHCH:  cpu time    7.7348: real time    7.7491
       DOS:  cpu time    0.0022: real time    0.0022
    CHARGE:  cpu time    6.9288: real time    6.9308
    MIXING:  cpu time    0.0063: real time    0.0063
    --------------------------------------------
      LOOP:  cpu time   76.7024: real time   76.7569

 eigenvalue-minimisations  :  6999
 total energy-change (2. order) :-0.6377522E-06  (-0.3272195E-06)
 number of electron    2159.9997747 magnetization 
 augmentation part      775.1196118 magnetization 

 DIPCOR: dipole corrections for dipol
 direction  3 min pos   154,
 dipolmoment           0.000000      0.000000     -0.565893 electrons x Angstroem
 Tr[quadrupol]   -154722.561763

 energy correction for charged system         0.000000 eV
 dipol+quadrupol energy correction           -0.004316 eV
 added-field ion interaction        -14.493438 eV  (added to PSCEN)


 eigenvalues of (default mixing * dielectric matrix)
  average eigenvalue GAMMA=   1.0719
  1.8915  1.0756  0.2487

  free energy =  -0.703580112542E+03  energy without entropy=  -0.703509353248E+03


--------------------------------------------------------------------------------------------------------




--------------------------------------- Iteration      4(   5)  ---------------------------------------


    POTLOK:  cpu time    0.1714: real time    0.1733
    SETDIJ:  cpu time    0.0180: real time    0.0180
    EDDIAG:  cpu time   26.9793: real time   26.9895
  RMM-DIIS:  cpu time   30.7863: real time   30.8112
    ORTHCH:  cpu time    7.7671: real time    7.7706
       DOS:  cpu time    0.0020: real time    0.0020
    --------------------------------------------
      LOOP:  cpu time   65.7240: real time   65.7644

 eigenvalue-minimisations  :  5188
 total energy-change (2. order) : 0.1556968E-05  (-0.1304268E-06)
 number of electron    2159.9997747 magnetization 
 augmentation part      775.1196118 magnetization 

 DIPCOR: dipole corrections for dipol
 direction  3 min pos   154,
 dipolmoment           0.000000      0.000000     -0.567066 electrons x Angstroem
 Tr[quadrupol]   -154722.561319

 energy correction for charged system         0.000000 eV
 dipol+quadrupol energy correction           -0.004333 eV
 added-field ion interaction        -14.523471 eV  (added to PSCEN)


  free energy =  -0.703580110985E+03  energy without entropy=  -0.703509351235E+03


--------------------------------------------------------------------------------------------------------




------------------------ aborting loop because EDIFF is reached ----------------------------------------


    CHARGE:  cpu time    6.9371: real time    6.9395
    FORLOC:  cpu time    0.1943: real time    0.1943
    FORNL :  cpu time   25.5157: real time   25.5270
    STRESS:  cpu time   76.5484: real time   76.6032
    FORCOR:  cpu time    0.3381: real time    0.3381
    FORHAR:  cpu time    0.2324: real time    0.2324
    MIXING:  cpu time    0.0065: real time    0.0065
    OFIELD:  cpu time    0.0001: real time    0.0001

  Number of pair interactions contributing to vdW energy:  820158
  Edisp (eV):  -17.31293
    FORVDW:  cpu time    0.1190: real time    0.1190

  FORCE on cell =-STRESS in cart. coord.  units (eV):
  Direction    XX          YY          ZZ          XY          YZ          ZX
  --------------------------------------------------------------------------------------
  Alpha Z  6179.65840  6179.65840  6179.65840
  Ewald  463299.94229462778.27856************  -337.91384    89.66820   264.95332
  Hartree512569.13219512115.11131************  -271.74043    46.17680   175.14142
  E(xc)   -9659.49968 -9659.52079 -9700.73839    -0.11784     0.21715     0.41045
  Local  ************************************   609.91959  -127.72743  -430.02718
  n-local  -377.27117  -378.60884  -259.15832    -0.63318    -0.00618     0.18343
  augment 12985.30228 12985.14237 13063.91831     0.09681    -0.36119    -0.08250
  Kinetic 30037.42988 30032.77879 30408.19964     0.71460    -7.61700   -10.74328
  Fock        0.00000     0.00000     0.00000     0.00000     0.00000     0.00000
  vdW       -23.94067   -23.77818   -18.14042     0.07653    -0.04379    -0.04366
  -------------------------------------------------------------------------------------
  Total    -122.37851  -122.14532    -1.93594     0.40223     0.30655    -0.20801
  in kB     -27.30734   -27.25531    -0.43198     0.08975     0.06840    -0.04641
  external pressure =      -18.33 kB  Pullay stress =        0.00 kB



--------------------------------------------------------------------------------------------------------



  FREE ENERGIE OF THE ION-ELECTRON SYSTEM (eV)
  ---------------------------------------------------
  free  energy   TOTEN  =      -720.89304050 eV

  energy  without entropy=     -720.82228075  energy(sigma->0) =     -720.85766062
 
 d Force = 0.8716905E-04[ 0.471E-04, 0.127E-03]  d Energy = 0.9055120E-04-0.338E-05
 d Force = 0.3310498E-01[ 0.330E-01, 0.332E-01]  d Ewald  = 0.3310490E-01 0.735E-07


--------------------------------------------------------------------------------------------------------


    POTLOK:  cpu time    0.1929: real time    0.1937


--------------------------------------------------------------------------------------------------------


 Conjugate gradient step on ions:
 trial-energy change:   -0.000091  1 .order   -0.000087   -0.000127   -0.000047
  (g-gl).g = 0.118E-03      g.g   = 0.118E-03  gl.gl    = 0.264E-03
 g(Force)  = 0.118E-03   g(Stress)= 0.000E+00 ortho     =-0.216E-06
 gamma     =   0.44809
 trial     =   1.07861
 opt step  =   1.71296  (harmonic =   1.71296) maximal distance =0.00084886
 next E    =  -720.893051   (d E  =  -0.00010)


--------------------------------------------------------------------------------------------------------


  
 reached required accuracy - stopping structural energy minimisation
     LOOP+:  cpu time  578.3818: real time  578.7664
    4ORBIT:  cpu time    0.0000: real time    0.0000

 total amount of memory used by VASP MPI-rank0   447235. kBytes
=======================================================================

   base      :      30000. kBytes
   nonlr-proj:      25204. kBytes
   fftplans  :      17430. kBytes
   grid      :      29560. kBytes
   one-center:        824. kBytes
   wavefun   :     344217. kBytes
 
  
  
 General timing and accounting informations for this job:
 ========================================================
  
                  Total CPU time used (sec):     5258.181
                            User time (sec):     5098.067
                          System time (sec):      160.114
                         Elapsed time (sec):     5271.464
  
                   Maximum memory used (kb):      620512.
                   Average memory used (kb):           0.
  
                          Minor page faults:        64525
                          Major page faults:            0
                 Voluntary context switches:         4736
