 vasp.5.4.4.18Apr17-6-g9f103f2a35 (build Jun 30 2017 19:19:18) complex          
  
 executed on         MareNostrum4 date 2022.05.13  15:13:34
 running on   48 total cores
 distrk:  each k-point on   48 cores,    1 groups
 distr:  one band on NCORES_PER_BAND=   1 cores,   48 groups


--------------------------------------------------------------------------------------------------------


 INCAR:
 POTCAR:    PAW_PBE H 15Jun2001                   
 POTCAR:    PAW_PBE C 08Apr2002                   

 ----------------------------------------------------------------------------- 
|                                                                             |
|           W    W    AA    RRRRR   N    N  II  N    N   GGGG   !!!           |
|           W    W   A  A   R    R  NN   N  II  NN   N  G    G  !!!           |
|           W    W  A    A  R    R  N N  N  II  N N  N  G       !!!           |
|           W WW W  AAAAAA  RRRRR   N  N N  II  N  N N  G  GGG   !            |
|           WW  WW  A    A  R   R   N   NN  II  N   NN  G    G                |
|           W    W  A    A  R    R  N    N  II  N    N   GGGG   !!!           |
|                                                                             |
|      For optimal performance we recommend to set                            |
|        NCORE= 4 - approx SQRT( number of cores)                             |
|      NCORE specifies how many cores store one orbital (NPAR=cpu/NCORE).     |
|      This setting can  greatly improve the performance of VASP for DFT.     |
|      The default,   NCORE=1            might be grossly inefficient         |
|      on modern multi-core architectures or massively parallel machines.     |
|      Do your own testing !!!!                                               |
|      Unfortunately you need to use the default for GW and RPA calculations. |
|      (for HF NCORE is supported but not extensively tested yet)             |
|                                                                             |
 ----------------------------------------------------------------------------- 

 POTCAR:    PAW_PBE H 15Jun2001                   
  local pseudopotential read in
  atomic valenz-charges read in
  non local Contribution for L=           0  read in
    real space projection operators read in
  non local Contribution for L=           0  read in
    real space projection operators read in
  non local Contribution for L=           1  read in
    real space projection operators read in
    PAW grid and wavefunctions read in
 
   number of l-projection  operators is LMAX  =           3
   number of lm-projection operators is LMMAX =           5
 
 POTCAR:    PAW_PBE C 08Apr2002                   
  local pseudopotential read in
  partial core-charges read in
  partial kinetic energy density read in
  atomic valenz-charges read in
  non local Contribution for L=           0  read in
    real space projection operators read in
  non local Contribution for L=           0  read in
    real space projection operators read in
  non local Contribution for L=           1  read in
    real space projection operators read in
  non local Contribution for L=           1  read in
    real space projection operators read in
    PAW grid and wavefunctions read in
 
   number of l-projection  operators is LMAX  =           4
   number of lm-projection operators is LMMAX =           8
 
 Optimization of the real space projectors (new method)

 maximal supplied QI-value         = 34.20
 optimisation between [QCUT,QGAM] = [ 10.60, 21.55] = [ 31.48,130.03] Ry 
 Optimized for a Real-space Cutoff    1.23 Angstroem

   l    n(q)    QCUT    max X(q) W(low)/X(q) W(high)/X(q)  e(spline) 
   0      8    10.603    19.460    0.37E-03    0.59E-03    0.23E-06
   0      8    10.603    12.209    0.35E-03    0.56E-03    0.22E-06
   1      7    10.603     4.655    0.70E-04    0.28E-03    0.29E-06
 Optimization of the real space projectors (new method)

 maximal supplied QI-value         = 25.13
 optimisation between [QCUT,QGAM] = [ 10.81, 21.61] = [ 32.71,130.83] Ry 
 Optimized for a Real-space Cutoff    1.23 Angstroem

   l    n(q)    QCUT    max X(q) W(low)/X(q) W(high)/X(q)  e(spline) 
   0      8    10.807   115.676    0.36E-03    0.72E-03    0.24E-06
   0      8    10.807    87.132    0.35E-03    0.71E-03    0.24E-06
   1      7    10.807     4.429    0.19E-03    0.39E-03    0.11E-06
   1      7    10.807     2.733    0.14E-03    0.28E-03    0.13E-06
  PAW_PBE H 15Jun2001                   :
 energy of atom  1       EATOM=  -12.4884
 kinetic energy error for atom=    0.0045 (will be added to EATOM!!)
  PAW_PBE C 08Apr2002                   :
 energy of atom  2       EATOM= -147.1560
 kinetic energy error for atom=    0.0116 (will be added to EATOM!!)
 
 
 POSCAR: H  C                                    
  positions in cartesian coordinates
  No initial velocities read in
 exchange correlation table for  LEXCH =        8
   RHO(1)=    0.500       N(1)  =     2000
   RHO(2)=  100.500       N(2)  =     4000
 


--------------------------------------------------------------------------------------------------------


 ion  position               nearest neighbor table
   1  0.367  0.590  0.557-  33 1.10
   2  0.345  0.627  0.612-  33 1.10
   3  0.434  0.643  0.645-  34 1.10
   4  0.430  0.662  0.578-  34 1.10
   5  0.479  0.558  0.618-  36 1.09
   6  0.528  0.645  0.641-  37 1.10
   7  0.534  0.657  0.572-  37 1.10
   8  0.584  0.568  0.564-  39 1.09
   9  0.633  0.652  0.638-  40 1.10
  10  0.628  0.658  0.569-  40 1.10
  11  0.691  0.571  0.625-  42 1.09
  12  0.727  0.662  0.640-  43 1.10
  13  0.730  0.673  0.570-  43 1.10
  14  0.798  0.602  0.560-  45 1.10
  15  0.827  0.695  0.579-  46 1.09
  16  0.872  0.648  0.606-  46 1.10
  17  0.826  0.682  0.649-  46 1.10
  18  0.397  0.517  0.617-  35 1.09
  19  0.330  0.534  0.632-  35 1.09
  20  0.382  0.556  0.674-  35 1.09
  21  0.479  0.604  0.505-  38 1.10
  22  0.441  0.548  0.526-  38 1.09
  23  0.511  0.545  0.525-  38 1.09
  24  0.586  0.575  0.687-  41 1.10
  25  0.621  0.527  0.647-  41 1.09
  26  0.551  0.526  0.650-  41 1.09
  27  0.686  0.601  0.507-  44 1.10
  28  0.661  0.541  0.535-  44 1.09
  29  0.730  0.552  0.535-  44 1.09
  30  0.788  0.588  0.682-  47 1.10
  31  0.841  0.562  0.642-  47 1.10
  32  0.775  0.539  0.632-  47 1.09
  33  0.376  0.599  0.599-   1 1.10   2 1.10  35 1.52  34 1.53
  34  0.430  0.627  0.604-   4 1.10   3 1.10  33 1.53  36 1.54
  35  0.371  0.549  0.633-  18 1.09  20 1.09  19 1.09  33 1.52
  36  0.479  0.592  0.591-   5 1.09  38 1.53  34 1.54  37 1.55
  37  0.531  0.625  0.602-   7 1.10   6 1.10  39 1.55  36 1.55
  38  0.478  0.571  0.534-  23 1.09  22 1.09  21 1.10  36 1.53
  39  0.583  0.591  0.601-   8 1.09  41 1.53  37 1.55  40 1.55
  40  0.633  0.629  0.601-  10 1.10   9 1.10  39 1.55  42 1.55
  41  0.585  0.553  0.649-  26 1.09  25 1.09  24 1.10  39 1.53
  42  0.687  0.601  0.594-  11 1.09  44 1.53  43 1.55  40 1.55
  43  0.733  0.642  0.601-  13 1.10  12 1.10  45 1.55  42 1.55
  44  0.691  0.572  0.540-  29 1.09  28 1.09  27 1.10  42 1.53
  45  0.790  0.619  0.600-  14 1.10  47 1.53  46 1.53  43 1.55
  46  0.831  0.664  0.609-  15 1.09  17 1.10  16 1.10  45 1.53
  47  0.799  0.575  0.642-  32 1.09  30 1.10  31 1.10  45 1.53
 
  LATTYP: Found a simple cubic cell.
 ALAT       =    25.0000000000
  
  Lattice vectors:
  
 A1 = (  25.0000000000,   0.0000000000,   0.0000000000)
 A2 = (   0.0000000000,  25.0000000000,   0.0000000000)
 A3 = (   0.0000000000,   0.0000000000,  25.0000000000)


Analysis of symmetry for initial positions (statically):
=====================================================================
 Subroutine PRICEL returns:
 Original cell was already a primitive cell.
 

 Routine SETGRP: Setting up the symmetry group for a 
 simple cubic supercell.


 Subroutine GETGRP returns: Found  1 space group operations
 (whereof  1 operations were pure point group operations)
 out of a pool of 48 trial point group operations.


The static configuration has the point symmetry C_1 .


Analysis of symmetry for dynamics (positions and initial velocities):
=====================================================================
 Subroutine PRICEL returns:
 Original cell was already a primitive cell.
 

 Routine SETGRP: Setting up the symmetry group for a 
 simple cubic supercell.


 Subroutine GETGRP returns: Found  1 space group operations
 (whereof  1 operations were pure point group operations)
 out of a pool of 48 trial point group operations.


The dynamic configuration has the point symmetry C_1 .


Analysis of constrained symmetry for selective dynamics:
=====================================================================
 Subroutine PRICEL returns:
 Original cell was already a primitive cell.
 

 Routine SETGRP: Setting up the symmetry group for a 
 simple cubic supercell.


 Subroutine GETGRP returns: Found  1 space group operations
 (whereof  1 operations were pure point group operations)
 out of a pool of 48 trial point group operations.


The constrained configuration has the point symmetry C_1 .


 Subroutine INISYM returns: Found  1 space group operations
 (whereof  1 operations are pure point group operations),
 and found     1 'primitive' translations

 
 
 KPOINTS: K-POINTS                                

Automatic generation of k-mesh.
Space group operators:
 irot       det(A)        alpha          n_x          n_y          n_z        tau_x        tau_y        tau_z
    1     1.000000     0.000000     1.000000     0.000000     0.000000     0.000000     0.000000     0.000000
 
 Subroutine IBZKPT returns following result:
 ===========================================
 
 Found      1 irreducible k-points:
 
 Following reciprocal coordinates:
            Coordinates               Weight
  0.000000  0.000000  0.000000      1.000000
 
 Following cartesian coordinates:
            Coordinates               Weight
  0.000000  0.000000  0.000000      1.000000
 


--------------------------------------------------------------------------------------------------------




 Dimension of arrays:
   k-points           NKPTS =      1   k-points in BZ     NKDIM =      1   number of bands    NBANDS=     96
   number of dos      NEDOS =    301   number of ions     NIONS =     47
   non local maximal  LDIM  =      4   non local SUM 2l+1 LMDIM =      8
   total plane-waves  NPLWV = ******
   max r-space proj   IRMAX =   1408   max aug-charges    IRDMAX=   2272
   dimension x,y,z NGX =   140 NGY =  140 NGZ =  140
   dimension x,y,z NGXF=   280 NGYF=  280 NGZF=  280
   support grid    NGXF=   280 NGYF=  280 NGZF=  280
   ions per type =              32  15
   NGX,Y,Z   is equivalent  to a cutoff of   9.31,  9.31,  9.31 a.u.
   NGXF,Y,Z  is equivalent  to a cutoff of  18.62, 18.62, 18.62 a.u.

 SYSTEM =  x                                       
 POSCAR =  H  C                                    

 Startparameter for this run:
   NWRITE =      0    write-flag & timer
   PREC   = normal    normal or accurate (medium, high low for compatibility)
   ISTART =      0    job   : 0-new  1-cont  2-samecut
   ICHARG =      2    charge: 1-file 2-atom 10-const
   ISPIN  =      1    spin polarized calculation?
   LNONCOLLINEAR =      F non collinear calculations
   LSORBIT =      F    spin-orbit coupling
   INIWAV =      1    electr: 0-lowe 1-rand  2-diag
   LASPH  =      F    aspherical Exc in radial PAW
   METAGGA=      F    non-selfconsistent MetaGGA calc.

 Electronic Relaxation 1
   ENCUT  =  450.0 eV  33.07 Ry    5.75 a.u.  43.24 43.24 43.24*2*pi/ulx,y,z
   ENINI  =  450.0     initial cutoff
   ENAUG  =  644.9 eV  augmentation charge cutoff
   NELM   =     50;   NELMIN=  5; NELMDL= -7     # of ELM steps 
   EDIFF  = 0.1E-04   stopping-criterion for ELM
   LREAL  =      T    real-space projection
   NLSPLINE    = F    spline interpolate recip. space projectors
   LCOMPAT=      F    compatible to vasp.4.4
   GGA_COMPAT  = T    GGA compatible to vasp.4.4-vasp.4.6
   LMAXPAW     = -100 max onsite density
   LMAXMIX     =    2 max onsite mixed and CHGCAR
   VOSKOWN=      0    Vosko Wilk Nusair interpolation
   ROPT   =   -0.00050  -0.00050
 Ionic relaxation
   EDIFFG = -.2E-01   stopping-criterion for IOM
   NSW    =    300    number of steps for IOM
   NBLOCK =      1;   KBLOCK =    300    inner block; outer block 
   IBRION =      2    ionic relax: 0-MD 1-quasi-New 2-CG
   NFREE  =      2    steps in history (QN), initial steepest desc. (CG)
   ISIF   =      2    stress and relaxation
   IWAVPR =     11    prediction:  0-non 1-charg 2-wave 3-comb
   ISYM   =      2    0-nonsym 1-usesym 2-fastsym
   LCORR  =      T    Harris-Foulkes like correction to forces

   POTIM  = 0.1500    time-step for ionic-motion
   TEIN   =    0.0    initial temperature
   TEBEG  =    0.0;   TEEND  =   0.0 temperature during run
   SMASS  =  -3.00    Nose mass-parameter (am)
   estimated Nose-frequenzy (Omega)   =  0.10E-29 period in steps =****** mass=  -0.143E-25a.u.
   SCALEE = 1.0000    scale energy and forces
   NPACO  =    256;   APACO  = 16.0  distance and # of slots for P.C.
   PSTRESS=    0.0 pullay stress

  Mass of Ions in am
   POMASS =   1.00 12.01
  Ionic Valenz
   ZVAL   =   1.00  4.00
  Atomic Wigner-Seitz radii
   RWIGS  =  -1.00 -1.00
  virtual crystal weights 
   VCA    =   1.00  1.00
   NELECT =      92.0000    total number of electrons
   NUPDOWN=      -1.0000    fix difference up-down

 DOS related values:
   EMIN   =  10.00;   EMAX   =-10.00  energy-range for DOS
   EFERMI =   0.00
   ISMEAR =     0;   SIGMA  =   0.03  broadening in eV -4-tet -1-fermi 0-gaus

 Electronic relaxation 2 (details)
   IALGO  =     68    algorithm
   LDIAG  =      T    sub-space diagonalisation (order eigenvalues)
   LSUBROT=      F    optimize rotation matrix (better conditioning)
   TURBO    =      0    0=normal 1=particle mesh
   IRESTART =      0    0=no restart 2=restart with 2 vectors
   NREBOOT  =      0    no. of reboots
   NMIN     =      0    reboot dimension
   EREF     =   0.00    reference energy to select bands
   IMIX   =      4    mixing-type and parameters
     AMIX     =   0.40;   BMIX     =  1.00
     AMIX_MAG =   1.60;   BMIX_MAG =  1.00
     AMIN     =   0.10
     WC   =   100.;   INIMIX=   1;  MIXPRE=   1;  MAXMIX= -45

 Intra band minimization:
   WEIMIN = 0.0010     energy-eigenvalue tresh-hold
   EBREAK =  0.26E-07  absolut break condition
   DEPER  =   0.30     relativ break condition  

   TIME   =   0.40     timestep for ELM

  volume/ion in A,a.u.               =     332.45      2243.46
  Fermi-wavevector in a.u.,A,eV,Ry     =   0.295618  0.558637  1.189013  0.087390
  Thomas-Fermi vector in A             =   1.159363
 
 Write flags
   LWAVE        =      F    write WAVECAR
   LDOWNSAMPLE  =      F    k-point downsampling of WAVECAR
   LCHARG       =      F    write CHGCAR
   LVTOT        =      F    write LOCPOT, total local potential
   LVHAR        =      F    write LOCPOT, Hartree potential only
   LELF         =      F    write electronic localiz. function (ELF)
   LORBIT       =      0    0 simple, 1 ext, 2 COOP (PROOUT), +10 PAW based schemes


 Dipole corrections
   LMONO  =      F    monopole corrections only (constant potential shift)
   LDIPOL =      T    correct potential (dipole corrections)
   IDIPOL =      4    1-x, 2-y, 3-z, 4-all directions 
   EPSILON=  1.0000000 bulk dielectric constant

 Exchange correlation treatment:
   GGA     =    PE    GGA type
   LEXCH   =     8    internal setting for exchange type
   VOSKOWN=      0    Vosko Wilk Nusair interpolation
   LHFCALC =     F    Hartree Fock is set to
   LHFONE  =     F    Hartree Fock one center treatment
   AEXX    =    0.0000 exact exchange contribution

 Linear response parameters
   LEPSILON=     F    determine dielectric tensor
   LRPA    =     F    only Hartree local field effects (RPA)
   LNABLA  =     F    use nabla operator in PAW spheres
   LVEL    =     F    velocity operator in full k-point grid
   LINTERFAST=   F  fast interpolation
   KINTER  =     0    interpolate to denser k-point grid
   CSHIFT  =0.1000    complex shift for real part using Kramers Kronig
   OMEGAMAX=  -1.0    maximum frequency
   DEG_THRESHOLD= 0.2000000E-02 threshold for treating states as degnerate
   RTIME   =   -0.100 relaxation time in fs
  (WPLASMAI=    0.000 imaginary part of plasma frequency in eV, 0.658/RTIME)
   DFIELD  = 0.0000000 0.0000000 0.0000000 field for delta impulse in time
 
 Orbital magnetization related:
   ORBITALMAG=     F  switch on orbital magnetization
   LCHIMAG   =     F  perturbation theory with respect to B field
   DQ        =  0.001000  dq finite difference perturbation B field
   LLRAUG    =     F  two centre corrections for induced B field



--------------------------------------------------------------------------------------------------------


 conjugate gradient relaxation of ions
   using selective dynamics as specified on POSCAR
   WARNING: If single coordinates had been selected the selection of coordinates
            is made according to the corresponding   d i r e c t   coordinates!
            Don't support selection of single cartesian coordinates -- sorry ...
  !
 charge density and potential will be updated during run
 non-spin polarized calculation
 RMM-DIIS sequential band-by-band and
  variant of blocked Davidson during initial phase
 perform sub-space diagonalisation
    before iterative eigenvector-optimisation
 modified Broyden-mixing scheme, WC =      100.0
 initial mixing is a Kerker type mixing with AMIX =  0.4000 and BMIX =      1.0000
 Hartree-type preconditioning will be used
 using additional bands           50
 real space projection scheme for non local part
 use partial core corrections
 calculate Harris-corrections to forces 
   (improved forces if not selfconsistent)
 use gradient corrections 
 use of overlap-Matrix (Vanderbilt PP)
 Gauss-broadening in eV      SIGMA  =   0.03


--------------------------------------------------------------------------------------------------------


  energy-cutoff  :      450.00
  volume of cell :    15625.00
      direct lattice vectors                 reciprocal lattice vectors
    25.000000000  0.000000000  0.000000000     0.040000000  0.000000000  0.000000000
     0.000000000 25.000000000  0.000000000     0.000000000  0.040000000  0.000000000
     0.000000000  0.000000000 25.000000000     0.000000000  0.000000000  0.040000000

  length of vectors
    25.000000000 25.000000000 25.000000000     0.040000000  0.040000000  0.040000000


 
 k-points in units of 2pi/SCALE and weight: K-POINTS                                
   0.00000000  0.00000000  0.00000000       1.000
 
 k-points in reciprocal lattice and weights: K-POINTS                                
   0.00000000  0.00000000  0.00000000       1.000
 
 position of ions in fractional coordinates (direct lattice) 
   0.36700833  0.58987709  0.55710852
   0.34465953  0.62745949  0.61189852
   0.43383913  0.64250749  0.64485652
   0.42996993  0.66237909  0.57757972
   0.47866553  0.55785309  0.61815452
   0.52807673  0.64470109  0.64078852
   0.53405193  0.65655909  0.57180412
   0.58406193  0.56759469  0.56444052
   0.63294273  0.65178869  0.63834372
   0.62794593  0.65827189  0.56854932
   0.69141513  0.57062109  0.62544492
   0.72726993  0.66239069  0.63965092
   0.72967633  0.67261349  0.57018452
   0.79840993  0.60195509  0.56031452
   0.82677953  0.69488949  0.57887252
   0.87205273  0.64808789  0.60649932
   0.82611233  0.68184469  0.64861652
   0.39655313  0.51673269  0.61705972
   0.32970473  0.53387589  0.63168052
   0.38180193  0.55624509  0.67423212
   0.47933113  0.60439149  0.50473892
   0.44134513  0.54841389  0.52578492
   0.51124673  0.54452229  0.52516132
   0.58619313  0.57467229  0.68683212
   0.62077513  0.52702509  0.64738652
   0.55092313  0.52585469  0.64960372
   0.68647193  0.60088669  0.50669852
   0.66071113  0.54145029  0.53547052
   0.72979113  0.55226909  0.53466172
   0.78819233  0.58820109  0.68173652
   0.84084873  0.56173869  0.64234612
   0.77498233  0.53907669  0.63226772
   0.37570113  0.59925789  0.59901892
   0.43012833  0.62721149  0.60385772
   0.37090993  0.54866309  0.63251292
   0.47944553  0.59223989  0.59114572
   0.53124513  0.62463189  0.60183412
   0.47776353  0.57140109  0.53351012
   0.58341953  0.59121229  0.60120212
   0.63263953  0.62887989  0.60084972
   0.58541233  0.55271069  0.64891932
   0.68744313  0.60066989  0.59392172
   0.73310673  0.64178029  0.60128412
   0.69129993  0.57243989  0.53965252
   0.79041593  0.61868389  0.60004892
   0.83113073  0.66353109  0.60913372
   0.79894753  0.57451229  0.64153332
 
 position of ions in cartesian coordinates  (Angst):
   9.17520826 14.74692725 13.92771295
   8.61648826 15.68648725 15.29746295
  10.84597826 16.06268725 16.12141295
  10.74924826 16.55947725 14.43949295
  11.96663826 13.94632725 15.45386295
  13.20191826 16.11752725 16.01971295
  13.35129826 16.41397725 14.29510295
  14.60154826 14.18986725 14.11101295
  15.82356826 16.29471725 15.95859295
  15.69864826 16.45679725 14.21373295
  17.28537826 14.26552725 15.63612295
  18.18174826 16.55976725 15.99127295
  18.24190826 16.81533725 14.25461295
  19.96024826 15.04887725 14.00786295
  20.66948826 17.37223725 14.47181295
  21.80131826 16.20219725 15.16248295
  20.65280826 17.04611725 16.21541295
   9.91382826 12.91831725 15.42649295
   8.24261826 13.34689725 15.79201295
   9.54504826 13.90612725 16.85580295
  11.98327826 15.10978725 12.61847295
  11.03362826 13.71034725 13.14462295
  12.78116826 13.61305725 13.12903295
  14.65482826 14.36680725 17.17080295
  15.51937826 13.17562725 16.18466295
  13.77307826 13.14636725 16.24009295
  17.16179826 15.02216725 12.66746295
  16.51777826 13.53625725 13.38676295
  18.24477826 13.80672725 13.36654295
  19.70480826 14.70502725 17.04341295
  21.02121826 14.04346725 16.05865295
  19.37455826 13.47691725 15.80669295
   9.39252826 14.98144725 14.97547295
  10.75320826 15.68028725 15.09644295
   9.27274826 13.71657725 15.81282295
  11.98613826 14.80599725 14.77864295
  13.28112826 15.61579725 15.04585295
  11.94408826 14.28502725 13.33775295
  14.58548826 14.78030725 15.03005295
  15.81598826 15.72199725 15.02124295
  14.63530826 13.81776725 16.22298295
  17.18607826 15.01674725 14.84804295
  18.32766826 16.04450725 15.03210295
  17.28249826 14.31099725 13.49131295
  19.76039826 15.46709725 15.00122295
  20.77826826 16.58827725 15.22834295
  19.97368826 14.36280725 16.03833295
 


--------------------------------------------------------------------------------------------------------


 k-point  1 :   0.0000 0.0000 0.0000  plane waves:  338755

 maximum and minimum number of plane-waves per node :    338755   338755

 maximum number of plane-waves:    338755
 maximum index in each direction: 
   IXMAX=   43   IYMAX=   43   IZMAX=   43
   IXMIN=  -43   IYMIN=  -43   IZMIN=  -43


 serial   3D FFT for wavefunctions
 parallel 3D FFT for charge:
    minimum data exchange during FFTs selected (reduces bandwidth)


 total amount of memory used by VASP MPI-rank0   208789. kBytes
=======================================================================

   base      :      30000. kBytes
   nonlr-proj:       4343. kBytes
   fftplans  :      26902. kBytes
   grid      :     136550. kBytes
   one-center:        144. kBytes
   wavefun   :      10850. kBytes
 
     INWAV:  cpu time    0.0000: real time    0.0002
 Broyden mixing: mesh for mixing (old mesh)
   NGX = 87   NGY = 87   NGZ = 87
  (NGX  =280   NGY  =280   NGZ  =280)
  gives a total of 658503 points

 initial charge density was supplied:
 charge density of overlapping atoms calculated
 number of electron      92.0000000 magnetization 
 keeping initial charge density in first step


--------------------------------------------------------------------------------------------------------


 Maximum index for non-local projection operator         1328
 Maximum index for augmentation-charges          191 (set IRDMAX)


--------------------------------------------------------------------------------------------------------


 First call to EWALD:  gamma=   0.071
 Maximum number of real-space cells 3x 3x 3
 Maximum number of reciprocal cells 3x 3x 3

    FEWALD:  cpu time    0.0022: real time    0.0022


--------------------------------------- Iteration      1(   1)  ---------------------------------------


    POTLOK:  cpu time    0.4959: real time    0.4975
    SETDIJ:  cpu time    0.0026: real time    0.0030
     EDDAV:  cpu time    2.9943: real time    2.9988
       DOS:  cpu time    0.0021: real time    0.0030
    --------------------------------------------
      LOOP:  cpu time    3.4949: real time    3.5024

 eigenvalue-minimisations  :   288
 total energy-change (2. order) : 0.3039662E+03  (-0.2251612E+04)
 number of electron      92.0000000 magnetization 
 augmentation part       92.0000000 magnetization 

 DIPCOR: dipole corrections for dipol
 direction  1 min pos    31, direction  2 min pos   158, direction  3 min pos   105,
 dipolmoment           0.000058     39.622276      0.009247 electrons x Angstroem
 Tr[quadrupol]     -1495.927395

 energy correction for charged system         0.000000 eV
 dipol+quadrupol energy correction           -3.030539 eV
 added-field ion interaction         89.688076 eV  (added to PSCEN)


 Free energy of the ion-electron system (eV)
  ---------------------------------------------------
  alpha Z        PSCENC =        88.93034917
  Ewald energy   TEWEN  =      9584.62530698
  -Hartree energ DENC   =    -11178.69428619
  -exchange      EXHF   =         0.00000000
  -V(xc)+E(xc)   XCENC  =       273.77113884
  PAW double counting   =      1696.11957365    -1704.94474987
  entropy T*S    EENTRO =        -0.00169628
  eigenvalues    EBANDS =     -1062.48982005
  atomic energy  EATOM  =      2606.65040413
  Solvation  Ediel_sol  =         0.00000000
  ---------------------------------------------------
  free energy    TOTEN  =       303.96622037 eV

  energy without entropy =      303.96791666  energy(sigma->0) =      303.96706852


--------------------------------------------------------------------------------------------------------




--------------------------------------- Iteration      1(   2)  ---------------------------------------


     EDDAV:  cpu time    3.7912: real time    3.7922
       DOS:  cpu time    0.0017: real time    0.0017
    --------------------------------------------
      LOOP:  cpu time    3.7928: real time    3.7939

 eigenvalue-minimisations  :   384
 total energy-change (2. order) :-0.5130205E+03  (-0.5059860E+03)
 number of electron      92.0000000 magnetization 
 augmentation part       92.0000000 magnetization 

 DIPCOR: dipole corrections for dipol
 direction  1 min pos    31, direction  2 min pos   158, direction  3 min pos   105,
 dipolmoment           0.000058     39.622276      0.009247 electrons x Angstroem
 Tr[quadrupol]     -1495.927395

 energy correction for charged system         0.000000 eV
 dipol+quadrupol energy correction           -3.030539 eV
 added-field ion interaction         89.688076 eV  (added to PSCEN)


 Free energy of the ion-electron system (eV)
  ---------------------------------------------------
  alpha Z        PSCENC =        88.93034917
  Ewald energy   TEWEN  =      9584.62530698
  -Hartree energ DENC   =    -11178.69428619
  -exchange      EXHF   =         0.00000000
  -V(xc)+E(xc)   XCENC  =       273.77113884
  PAW double counting   =      1696.11957365    -1704.94474987
  entropy T*S    EENTRO =        -0.00000000
  eigenvalues    EBANDS =     -1575.51201722
  atomic energy  EATOM  =      2606.65040413
  Solvation  Ediel_sol  =         0.00000000
  ---------------------------------------------------
  free energy    TOTEN  =      -209.05428052 eV

  energy without entropy =     -209.05428052  energy(sigma->0) =     -209.05428052


--------------------------------------------------------------------------------------------------------




--------------------------------------- Iteration      1(   3)  ---------------------------------------


     EDDAV:  cpu time    2.9885: real time    2.9901
       DOS:  cpu time    0.0029: real time    0.0029
    --------------------------------------------
      LOOP:  cpu time    2.9914: real time    2.9931

 eigenvalue-minimisations  :   288
 total energy-change (2. order) :-0.7507307E+02  (-0.7462334E+02)
 number of electron      92.0000000 magnetization 
 augmentation part       92.0000000 magnetization 

 DIPCOR: dipole corrections for dipol
 direction  1 min pos    31, direction  2 min pos   158, direction  3 min pos   105,
 dipolmoment           0.000058     39.622276      0.009247 electrons x Angstroem
 Tr[quadrupol]     -1495.927395

 energy correction for charged system         0.000000 eV
 dipol+quadrupol energy correction           -3.030539 eV
 added-field ion interaction         89.688076 eV  (added to PSCEN)


 Free energy of the ion-electron system (eV)
  ---------------------------------------------------
  alpha Z        PSCENC =        88.93034917
  Ewald energy   TEWEN  =      9584.62530698
  -Hartree energ DENC   =    -11178.69428619
  -exchange      EXHF   =         0.00000000
  -V(xc)+E(xc)   XCENC  =       273.77113884
  PAW double counting   =      1696.11957365    -1704.94474987
  entropy T*S    EENTRO =        -0.00000000
  eigenvalues    EBANDS =     -1650.58508542
  atomic energy  EATOM  =      2606.65040413
  Solvation  Ediel_sol  =         0.00000000
  ---------------------------------------------------
  free energy    TOTEN  =      -284.12734871 eV

  energy without entropy =     -284.12734871  energy(sigma->0) =     -284.12734871


--------------------------------------------------------------------------------------------------------




--------------------------------------- Iteration      1(   4)  ---------------------------------------


     EDDAV:  cpu time    3.7868: real time    3.7892
       DOS:  cpu time    0.0024: real time    0.0024
    --------------------------------------------
      LOOP:  cpu time    3.7892: real time    3.7916

 eigenvalue-minimisations  :   384
 total energy-change (2. order) :-0.3253297E+01  (-0.3251250E+01)
 number of electron      92.0000000 magnetization 
 augmentation part       92.0000000 magnetization 

 DIPCOR: dipole corrections for dipol
 direction  1 min pos    31, direction  2 min pos   158, direction  3 min pos   105,
 dipolmoment           0.000058     39.622276      0.009247 electrons x Angstroem
 Tr[quadrupol]     -1495.927395

 energy correction for charged system         0.000000 eV
 dipol+quadrupol energy correction           -3.030539 eV
 added-field ion interaction         89.688076 eV  (added to PSCEN)


 Free energy of the ion-electron system (eV)
  ---------------------------------------------------
  alpha Z        PSCENC =        88.93034917
  Ewald energy   TEWEN  =      9584.62530698
  -Hartree energ DENC   =    -11178.69428619
  -exchange      EXHF   =         0.00000000
  -V(xc)+E(xc)   XCENC  =       273.77113884
  PAW double counting   =      1696.11957365    -1704.94474987
  entropy T*S    EENTRO =        -0.00000000
  eigenvalues    EBANDS =     -1653.83838208
  atomic energy  EATOM  =      2606.65040413
  Solvation  Ediel_sol  =         0.00000000
  ---------------------------------------------------
  free energy    TOTEN  =      -287.38064537 eV

  energy without entropy =     -287.38064537  energy(sigma->0) =     -287.38064537


--------------------------------------------------------------------------------------------------------




--------------------------------------- Iteration      1(   5)  ---------------------------------------


     EDDAV:  cpu time    2.9580: real time    2.9600
       DOS:  cpu time    0.0030: real time    0.0030
    --------------------------------------------
      LOOP:  cpu time    2.9610: real time    2.9630

 eigenvalue-minimisations  :   288
 total energy-change (2. order) :-0.2318817E-02  (-0.2318373E-02)
 number of electron      92.0000000 magnetization 
 augmentation part       92.0000000 magnetization 

 DIPCOR: dipole corrections for dipol
 direction  1 min pos    31, direction  2 min pos   158, direction  3 min pos   105,
 dipolmoment           0.000058     39.622276      0.009247 electrons x Angstroem
 Tr[quadrupol]     -1495.927395

 energy correction for charged system         0.000000 eV
 dipol+quadrupol energy correction           -3.030539 eV
 added-field ion interaction         89.688076 eV  (added to PSCEN)


 Free energy of the ion-electron system (eV)
  ---------------------------------------------------
  alpha Z        PSCENC =        88.93034917
  Ewald energy   TEWEN  =      9584.62530698
  -Hartree energ DENC   =    -11178.69428619
  -exchange      EXHF   =         0.00000000
  -V(xc)+E(xc)   XCENC  =       273.77113884
  PAW double counting   =      1696.11957365    -1704.94474987
  entropy T*S    EENTRO =        -0.00000000
  eigenvalues    EBANDS =     -1653.84070090
  atomic energy  EATOM  =      2606.65040413
  Solvation  Ediel_sol  =         0.00000000
  ---------------------------------------------------
  free energy    TOTEN  =      -287.38296419 eV

  energy without entropy =     -287.38296419  energy(sigma->0) =     -287.38296419


--------------------------------------------------------------------------------------------------------




--------------------------------------- Iteration      1(   6)  ---------------------------------------


     EDDAV:  cpu time    3.3806: real time    3.3822
       DOS:  cpu time    0.0026: real time    0.0026
    --------------------------------------------
      LOOP:  cpu time    3.3832: real time    3.3848

 eigenvalue-minimisations  :   336
 total energy-change (2. order) :-0.5134320E-05  (-0.5132365E-05)
 number of electron      92.0000000 magnetization 
 augmentation part       92.0000000 magnetization 

 DIPCOR: dipole corrections for dipol
 direction  1 min pos    31, direction  2 min pos   158, direction  3 min pos   105,
 dipolmoment           0.000058     39.622276      0.009247 electrons x Angstroem
 Tr[quadrupol]     -1495.927395

 energy correction for charged system         0.000000 eV
 dipol+quadrupol energy correction           -3.030539 eV
 added-field ion interaction         89.688076 eV  (added to PSCEN)


 Free energy of the ion-electron system (eV)
  ---------------------------------------------------
  alpha Z        PSCENC =        88.93034917
  Ewald energy   TEWEN  =      9584.62530698
  -Hartree energ DENC   =    -11178.69428619
  -exchange      EXHF   =         0.00000000
  -V(xc)+E(xc)   XCENC  =       273.77113884
  PAW double counting   =      1696.11957365    -1704.94474987
  entropy T*S    EENTRO =        -0.00000000
  eigenvalues    EBANDS =     -1653.84070603
  atomic energy  EATOM  =      2606.65040413
  Solvation  Ediel_sol  =         0.00000000
  ---------------------------------------------------
  free energy    TOTEN  =      -287.38296932 eV

  energy without entropy =     -287.38296932  energy(sigma->0) =     -287.38296932


--------------------------------------------------------------------------------------------------------




--------------------------------------- Iteration      1(   7)  ---------------------------------------


     EDDAV:  cpu time    3.0673: real time    3.0687
       DOS:  cpu time    0.0032: real time    0.0032
    CHARGE:  cpu time    0.2869: real time    0.2871
    MIXING:  cpu time    0.0135: real time    0.0142
    --------------------------------------------
      LOOP:  cpu time    3.3709: real time    3.3731

 eigenvalue-minimisations  :   288
 total energy-change (2. order) :-0.2789420E-07  (-0.2812753E-07)
 number of electron      92.0000011 magnetization 
 augmentation part        2.5254620 magnetization 

 DIPCOR: dipole corrections for dipol
 direction  1 min pos    31, direction  2 min pos   158, direction  3 min pos   105,
 dipolmoment           0.000058     39.622276      0.009247 electrons x Angstroem
 Tr[quadrupol]     -1495.927395

 energy correction for charged system         0.000000 eV
 dipol+quadrupol energy correction           -3.030539 eV
 added-field ion interaction         89.688076 eV  (added to PSCEN)


 Broyden mixing:
  rms(total) = 0.26677E+01    rms(broyden)= 0.26671E+01
  rms(prec ) = 0.28731E+01
  weight for this iteration     100.00

 Free energy of the ion-electron system (eV)
  ---------------------------------------------------
  alpha Z        PSCENC =        88.93034917
  Ewald energy   TEWEN  =      9584.62530698
  -Hartree energ DENC   =    -11178.69428619
  -exchange      EXHF   =         0.00000000
  -V(xc)+E(xc)   XCENC  =       273.77113884
  PAW double counting   =      1696.11957365    -1704.94474987
  entropy T*S    EENTRO =        -0.00000000
  eigenvalues    EBANDS =     -1653.84070606
  atomic energy  EATOM  =      2606.65040413
  Solvation  Ediel_sol  =         0.00000000
  ---------------------------------------------------
  free energy    TOTEN  =      -287.38296935 eV

  energy without entropy =     -287.38296935  energy(sigma->0) =     -287.38296935


--------------------------------------------------------------------------------------------------------




--------------------------------------- Iteration      1(   8)  ---------------------------------------


    POTLOK:  cpu time    0.4541: real time    0.4548
    SETDIJ:  cpu time    0.0020: real time    0.0020
    EDDIAG:  cpu time    0.4210: real time    0.4217
  RMM-DIIS:  cpu time    1.6904: real time    1.6906
    ORTHCH:  cpu time    0.0510: real time    0.0510
       DOS:  cpu time    0.0003: real time    0.0003
    CHARGE:  cpu time    0.2906: real time    0.2908
    MIXING:  cpu time    0.0136: real time    0.0138
    --------------------------------------------
      LOOP:  cpu time    2.9230: real time    2.9249

 eigenvalue-minimisations  :   192
 total energy-change (2. order) : 0.3122764E+02  (-0.9466671E+01)
 number of electron      92.0000008 magnetization 
 augmentation part        2.3312414 magnetization 

 DIPCOR: dipole corrections for dipol
 direction  1 min pos    69, direction  2 min pos   181, direction  3 min pos   113,
 dipolmoment           0.316253    -79.258801      0.257985 electrons x Angstroem
 Tr[quadrupol]     -1256.224725

 energy correction for charged system         0.000000 eV
 dipol+quadrupol energy correction          -12.125988 eV
 added-field ion interaction        215.234177 eV  (added to PSCEN)


 Broyden mixing:
  rms(total) = 0.15195E+01    rms(broyden)= 0.15193E+01
  rms(prec ) = 0.16370E+01
  weight for this iteration     100.00

 eigenvalues of (default mixing * dielectric matrix)
  average eigenvalue GAMMA=   1.2981
  1.2981

 Free energy of the ion-electron system (eV)
  ---------------------------------------------------
  alpha Z        PSCENC =       205.38100093
  Ewald energy   TEWEN  =      9584.62530698
  -Hartree energ DENC   =    -11396.54264873
  -exchange      EXHF   =         0.00000000
  -V(xc)+E(xc)   XCENC  =       283.73939434
  PAW double counting   =      3243.92631600    -3254.66651252
  entropy T*S    EENTRO =        -0.00000000
  eigenvalues    EBANDS =     -1529.26859193
  atomic energy  EATOM  =      2606.65040413
  Solvation  Ediel_sol  =         0.00000000
  ---------------------------------------------------
  free energy    TOTEN  =      -256.15533080 eV

  energy without entropy =     -256.15533080  energy(sigma->0) =     -256.15533080


--------------------------------------------------------------------------------------------------------




--------------------------------------- Iteration      1(   9)  ---------------------------------------


    POTLOK:  cpu time    0.4570: real time    0.4578
    SETDIJ:  cpu time    0.0023: real time    0.0023
    EDDIAG:  cpu time    0.4196: real time    0.4196
  RMM-DIIS:  cpu time    1.6662: real time    1.6685
    ORTHCH:  cpu time    0.0512: real time    0.0512
       DOS:  cpu time    0.0005: real time    0.0005
    CHARGE:  cpu time    0.2752: real time    0.2752
    MIXING:  cpu time    0.0132: real time    0.0132
    --------------------------------------------
      LOOP:  cpu time    2.8852: real time    2.8884

 eigenvalue-minimisations  :   192
 total energy-change (2. order) :-0.2296890E+01  (-0.8784509E+01)
 number of electron      92.0000011 magnetization 
 augmentation part        2.1733762 magnetization 

 DIPCOR: dipole corrections for dipol
 direction  1 min pos    70, direction  2 min pos    59, direction  3 min pos    54,
 dipolmoment           0.542960     -0.461168     -0.097045 electrons x Angstroem
 Tr[quadrupol]        69.021450

 energy correction for charged system         0.000000 eV
 dipol+quadrupol energy correction           -0.000998 eV
 added-field ion interaction          0.187225 eV  (added to PSCEN)


 Broyden mixing:
  rms(total) = 0.10203E+01    rms(broyden)= 0.10198E+01
  rms(prec ) = 0.10669E+01
  weight for this iteration     100.00

 eigenvalues of (default mixing * dielectric matrix)
  average eigenvalue GAMMA=   1.0520
  1.4300  0.6739

 Free energy of the ion-electron system (eV)
  ---------------------------------------------------
  alpha Z        PSCENC =         2.45903967
  Ewald energy   TEWEN  =      9584.62530698
  -Hartree energ DENC   =    -11557.37972029
  -exchange      EXHF   =         0.00000000
  -V(xc)+E(xc)   XCENC  =       291.22481254
  PAW double counting   =      4850.07091046    -4861.58285613
  entropy T*S    EENTRO =        -0.00000000
  eigenvalues    EBANDS =     -1174.52011856
  atomic energy  EATOM  =      2606.65040413
  Solvation  Ediel_sol  =         0.00000000
  ---------------------------------------------------
  free energy    TOTEN  =      -258.45222119 eV

  energy without entropy =     -258.45222119  energy(sigma->0) =     -258.45222119


--------------------------------------------------------------------------------------------------------




--------------------------------------- Iteration      1(  10)  ---------------------------------------


    POTLOK:  cpu time    0.4528: real time    0.4537
    SETDIJ:  cpu time    0.0024: real time    0.0024
    EDDIAG:  cpu time    0.4173: real time    0.4173
  RMM-DIIS:  cpu time    1.8278: real time    1.8280
    ORTHCH:  cpu time    0.0503: real time    0.0503
       DOS:  cpu time    0.0003: real time    0.0003
    CHARGE:  cpu time    0.2824: real time    0.2824
    MIXING:  cpu time    0.0138: real time    0.0138
    --------------------------------------------
      LOOP:  cpu time    3.0470: real time    3.0481

 eigenvalue-minimisations  :   194
 total energy-change (2. order) : 0.1885033E+01  (-0.1556077E+00)
 number of electron      92.0000011 magnetization 
 augmentation part        2.1605090 magnetization 

 DIPCOR: dipole corrections for dipol
 direction  1 min pos    41, direction  2 min pos    45, direction  3 min pos    47,
 dipolmoment          -0.041511     -0.339046     -0.076529 electrons x Angstroem
 Tr[quadrupol]        68.174323

 energy correction for charged system         0.000000 eV
 dipol+quadrupol energy correction           -0.000237 eV
 added-field ion interaction         -0.233400 eV  (added to PSCEN)


 Broyden mixing:
  rms(total) = 0.71144E+00    rms(broyden)= 0.71140E+00
  rms(prec ) = 0.74625E+00
  weight for this iteration     100.00

 eigenvalues of (default mixing * dielectric matrix)
  average eigenvalue GAMMA=   1.5263
  2.2508  0.9244  1.4036

 Free energy of the ion-electron system (eV)
  ---------------------------------------------------
  alpha Z        PSCENC =         2.03917544
  Ewald energy   TEWEN  =      9584.62530698
  -Hartree energ DENC   =    -11575.86691432
  -exchange      EXHF   =         0.00000000
  -V(xc)+E(xc)   XCENC  =       292.98404866
  PAW double counting   =      5418.10267001    -5429.46299178
  entropy T*S    EENTRO =        -0.00000000
  eigenvalues    EBANDS =     -1155.63888730
  atomic energy  EATOM  =      2606.65040413
  Solvation  Ediel_sol  =         0.00000000
  ---------------------------------------------------
  free energy    TOTEN  =      -256.56718818 eV

  energy without entropy =     -256.56718818  energy(sigma->0) =     -256.56718818


--------------------------------------------------------------------------------------------------------




--------------------------------------- Iteration      1(  11)  ---------------------------------------


    POTLOK:  cpu time    0.4581: real time    0.4582
    SETDIJ:  cpu time    0.0022: real time    0.0022
    EDDIAG:  cpu time    0.4171: real time    0.4171
  RMM-DIIS:  cpu time    1.8404: real time    1.8405
    ORTHCH:  cpu time    0.0500: real time    0.0500
       DOS:  cpu time    0.0002: real time    0.0002
    CHARGE:  cpu time    0.2810: real time    0.2810
    MIXING:  cpu time    0.0141: real time    0.0141
    --------------------------------------------
      LOOP:  cpu time    3.0630: real time    3.0633

 eigenvalue-minimisations  :   193
 total energy-change (2. order) :-0.1457584E+03  (-0.9855808E+02)
 number of electron      92.0000007 magnetization 
 augmentation part        1.5310000 magnetization 

 DIPCOR: dipole corrections for dipol
 direction  1 min pos    38, direction  2 min pos    43, direction  3 min pos   166,
 dipolmoment          -0.015090     -0.184979    289.697215 electrons x Angstroem
 Tr[quadrupol]     -1959.506555

 energy correction for charged system         0.000000 eV
 dipol+quadrupol energy correction         -162.005190 eV
 added-field ion interaction        643.040302 eV  (added to PSCEN)


 Broyden mixing:
  rms(total) = 0.46041E+01    rms(broyden)= 0.46035E+01
  rms(prec ) = 0.60730E+01
  weight for this iteration     100.00

 eigenvalues of (default mixing * dielectric matrix)
  average eigenvalue GAMMA=   1.1388
  2.1867  1.4398  0.9192  0.0094

 Free energy of the ion-electron system (eV)
  ---------------------------------------------------
  alpha Z        PSCENC =       483.30792439
  Ewald energy   TEWEN  =      9584.62530698
  -Hartree energ DENC   =    -11606.23682675
  -exchange      EXHF   =         0.00000000
  -V(xc)+E(xc)   XCENC  =       296.08835707
  PAW double counting   =      6494.60987083    -6505.55293879
  entropy T*S    EENTRO =        -0.00000000
  eigenvalues    EBANDS =     -1755.81769362
  atomic energy  EATOM  =      2606.65040413
  Solvation  Ediel_sol  =         0.00000000
  ---------------------------------------------------
  free energy    TOTEN  =      -402.32559575 eV

  energy without entropy =     -402.32559575  energy(sigma->0) =     -402.32559575


--------------------------------------------------------------------------------------------------------




--------------------------------------- Iteration      1(  12)  ---------------------------------------


    POTLOK:  cpu time    0.4556: real time    0.4558
    SETDIJ:  cpu time    0.0021: real time    0.0021
    EDDIAG:  cpu time    0.4222: real time    0.4222
  RMM-DIIS:  cpu time    1.9730: real time    1.9732
    ORTHCH:  cpu time    0.0505: real time    0.0505
       DOS:  cpu time    0.0003: real time    0.0003
    CHARGE:  cpu time    0.2745: real time    0.2745
    MIXING:  cpu time    0.0149: real time    0.0149
    --------------------------------------------
      LOOP:  cpu time    3.1931: real time    3.1935

 eigenvalue-minimisations  :   195
 total energy-change (2. order) : 0.1445987E+03  (-0.8574734E+02)
 number of electron      92.0000009 magnetization 
 augmentation part        2.1270245 magnetization 

 DIPCOR: dipole corrections for dipol
 direction  1 min pos    97, direction  2 min pos    73, direction  3 min pos   181,
 dipolmoment          23.708547     -0.379689    -89.918174 electrons x Angstroem
 Tr[quadrupol]     -1631.789785

 energy correction for charged system         0.000000 eV
 dipol+quadrupol energy correction          -16.691783 eV
 added-field ion interaction        317.908092 eV  (added to PSCEN)


 Broyden mixing:
  rms(total) = 0.74783E+00    rms(broyden)= 0.74552E+00
  rms(prec ) = 0.82638E+00
  weight for this iteration     100.00

 eigenvalues of (default mixing * dielectric matrix)
  average eigenvalue GAMMA=   0.9240
  2.2089  1.3851  0.9272  0.0904  0.0084

 Free energy of the ion-electron system (eV)
  ---------------------------------------------------
  alpha Z        PSCENC =       303.48912116
  Ewald energy   TEWEN  =      9584.62530698
  -Hartree energ DENC   =    -11601.23312812
  -exchange      EXHF   =         0.00000000
  -V(xc)+E(xc)   XCENC  =       296.01582755
  PAW double counting   =      6459.52293885    -6470.45925352
  entropy T*S    EENTRO =        -0.00000000
  eigenvalues    EBANDS =     -1436.33812492
  atomic energy  EATOM  =      2606.65040413
  Solvation  Ediel_sol  =         0.00000000
  ---------------------------------------------------
  free energy    TOTEN  =      -257.72690791 eV

  energy without entropy =     -257.72690791  energy(sigma->0) =     -257.72690791


--------------------------------------------------------------------------------------------------------




--------------------------------------- Iteration      1(  13)  ---------------------------------------


    POTLOK:  cpu time    0.4520: real time    0.4528
    SETDIJ:  cpu time    0.0021: real time    0.0021
    EDDIAG:  cpu time    0.4176: real time    0.4176
  RMM-DIIS:  cpu time    1.8530: real time    1.8532
    ORTHCH:  cpu time    0.0501: real time    0.0501
       DOS:  cpu time    0.0005: real time    0.0005
    CHARGE:  cpu time    0.2792: real time    0.2792
    MIXING:  cpu time    0.0155: real time    0.0155
    --------------------------------------------
      LOOP:  cpu time    3.0698: real time    3.0709

 eigenvalue-minimisations  :   197
 total energy-change (2. order) : 0.3611868E+02  (-0.8461253E+01)
 number of electron      92.0000010 magnetization 
 augmentation part        2.1123113 magnetization 

 DIPCOR: dipole corrections for dipol
 direction  1 min pos   105, direction  2 min pos    77, direction  3 min pos   183,
 dipolmoment          -8.677539     -0.402736   -182.667057 electrons x Angstroem
 Tr[quadrupol]     -1669.707551

 energy correction for charged system         0.000000 eV
 dipol+quadrupol energy correction          -64.552489 eV
 added-field ion interaction        661.535996 eV  (added to PSCEN)


 Broyden mixing:
  rms(total) = 0.17924E+01    rms(broyden)= 0.17920E+01
  rms(prec ) = 0.20682E+01
  weight for this iteration     100.00

 eigenvalues of (default mixing * dielectric matrix)
  average eigenvalue GAMMA=   0.7765
  2.2282  1.3713  0.9293  0.1104  0.0083  0.0116

 Free energy of the ion-electron system (eV)
  ---------------------------------------------------
  alpha Z        PSCENC =       599.25631909
  Ewald energy   TEWEN  =      9584.62530698
  -Hartree energ DENC   =    -11605.68290539
  -exchange      EXHF   =         0.00000000
  -V(xc)+E(xc)   XCENC  =       295.98384141
  PAW double counting   =      6461.27657604    -6472.23001270
  entropy T*S    EENTRO =        -0.00061771
  eigenvalues    EBANDS =     -1691.48714284
  atomic energy  EATOM  =      2606.65040413
  Solvation  Ediel_sol  =         0.00000000
  ---------------------------------------------------
  free energy    TOTEN  =      -221.60823098 eV

  energy without entropy =     -221.60761327  energy(sigma->0) =     -221.60792213


--------------------------------------------------------------------------------------------------------




--------------------------------------- Iteration      1(  14)  ---------------------------------------


    POTLOK:  cpu time    0.4513: real time    0.4523
    SETDIJ:  cpu time    0.0074: real time    0.0074
    EDDIAG:  cpu time    0.4199: real time    0.4200
  RMM-DIIS:  cpu time    1.9533: real time    1.9537
    ORTHCH:  cpu time    0.0507: real time    0.0507
       DOS:  cpu time    0.0006: real time    0.0006
    CHARGE:  cpu time    0.2755: real time    0.2755
    MIXING:  cpu time    0.0156: real time    0.0156
    --------------------------------------------
      LOOP:  cpu time    3.1743: real time    3.1758

 eigenvalue-minimisations  :   194
 total energy-change (2. order) :-0.3411731E+02  (-0.2118461E+02)
 number of electron      92.0000010 magnetization 
 augmentation part        2.1732255 magnetization 

 DIPCOR: dipole corrections for dipol
 direction  1 min pos   106, direction  2 min pos    77, direction  3 min pos    63,
 dipolmoment          10.404675     -0.410989     -0.173658 electrons x Angstroem
 Tr[quadrupol]      -496.181818

 energy correction for charged system         0.000000 eV
 dipol+quadrupol energy correction           -0.209352 eV
 added-field ion interaction         17.553693 eV  (added to PSCEN)


 Broyden mixing:
  rms(total) = 0.25948E+00    rms(broyden)= 0.25802E+00
  rms(prec ) = 0.29016E+00
  weight for this iteration     100.00

 eigenvalues of (default mixing * dielectric matrix)
  average eigenvalue GAMMA=   0.7320
  2.0772  1.2158  0.8812  0.8222  0.1100  0.0082  0.0094

 Free energy of the ion-electron system (eV)
  ---------------------------------------------------
  alpha Z        PSCENC =        19.61715339
  Ewald energy   TEWEN  =      9584.62530698
  -Hartree energ DENC   =    -11607.11894098
  -exchange      EXHF   =         0.00000000
  -V(xc)+E(xc)   XCENC  =       296.06796922
  PAW double counting   =      6469.63521101    -6480.58964655
  entropy T*S    EENTRO =        -0.00000000
  eigenvalues    EBANDS =     -1144.61299672
  atomic energy  EATOM  =      2606.65040413
  Solvation  Ediel_sol  =         0.00000000
  ---------------------------------------------------
  free energy    TOTEN  =      -255.72553951 eV

  energy without entropy =     -255.72553951  energy(sigma->0) =     -255.72553951


--------------------------------------------------------------------------------------------------------




--------------------------------------- Iteration      1(  15)  ---------------------------------------


    POTLOK:  cpu time    0.4524: real time    0.4532
    SETDIJ:  cpu time    0.0025: real time    0.0025
    EDDIAG:  cpu time    0.4171: real time    0.4171
  RMM-DIIS:  cpu time    1.9984: real time    1.9987
    ORTHCH:  cpu time    0.0509: real time    0.0510
       DOS:  cpu time    0.0008: real time    0.0008
    CHARGE:  cpu time    0.3161: real time    0.3162
    MIXING:  cpu time    0.0163: real time    0.0163
    --------------------------------------------
      LOOP:  cpu time    3.2545: real time    3.2558

 eigenvalue-minimisations  :   203
 total energy-change (2. order) :-0.6289467E+01  (-0.5971240E+02)
 number of electron      92.0000007 magnetization 
 augmentation part        1.4814868 magnetization 

 DIPCOR: dipole corrections for dipol
 direction  1 min pos    46, direction  2 min pos    47, direction  3 min pos   169,
 dipolmoment           0.052066     -0.172677    171.493965 electrons x Angstroem
 Tr[quadrupol]     -2332.763345

 energy correction for charged system         0.000000 eV
 dipol+quadrupol energy correction          -56.771599 eV
 added-field ion interaction        198.339990 eV  (added to PSCEN)


 Broyden mixing:
  rms(total) = 0.31139E+01    rms(broyden)= 0.31135E+01
  rms(prec ) = 0.41377E+01
  weight for this iteration     100.00

 eigenvalues of (default mixing * dielectric matrix)
  average eigenvalue GAMMA=   0.6425
  2.0802  1.2258  0.8464  0.8464  0.1110  0.0094  0.0082  0.0129

 Free energy of the ion-electron system (eV)
  ---------------------------------------------------
  alpha Z        PSCENC =       143.84120349
  Ewald energy   TEWEN  =      9584.62530698
  -Hartree energ DENC   =    -11616.93077441
  -exchange      EXHF   =         0.00000000
  -V(xc)+E(xc)   XCENC  =       296.03242053
  PAW double counting   =      6393.83191637    -6404.87740986
  entropy T*S    EENTRO =        -0.01174606
  eigenvalues    EBANDS =     -1265.17632765
  atomic energy  EATOM  =      2606.65040413
  Solvation  Ediel_sol  =         0.00000000
  ---------------------------------------------------
  free energy    TOTEN  =      -262.01500648 eV

  energy without entropy =     -262.00326043  energy(sigma->0) =     -262.00913346


--------------------------------------------------------------------------------------------------------




--------------------------------------- Iteration      1(  16)  ---------------------------------------


    POTLOK:  cpu time    0.4541: real time    0.4553
    SETDIJ:  cpu time    0.0027: real time    0.0027
    EDDIAG:  cpu time    0.4169: real time    0.4174
  RMM-DIIS:  cpu time    1.9598: real time    1.9608
    ORTHCH:  cpu time    0.0498: real time    0.0499
       DOS:  cpu time    0.0002: real time    0.0002
    CHARGE:  cpu time    0.2762: real time    0.2762
    MIXING:  cpu time    0.0190: real time    0.0190
    --------------------------------------------
      LOOP:  cpu time    3.1787: real time    3.1815

 eigenvalue-minimisations  :   198
 total energy-change (2. order) : 0.9305529E+01  (-0.4974876E+02)
 number of electron      92.0000010 magnetization 
 augmentation part        2.1336887 magnetization 

 DIPCOR: dipole corrections for dipol
 direction  1 min pos    99, direction  2 min pos    74, direction  3 min pos   182,
 dipolmoment          19.710747     -0.374037    -64.360381 electrons x Angstroem
 Tr[quadrupol]     -1572.463505

 energy correction for charged system         0.000000 eV
 dipol+quadrupol energy correction           -8.745693 eV
 added-field ion interaction        236.553341 eV  (added to PSCEN)


 Broyden mixing:
  rms(total) = 0.44781E+00    rms(broyden)= 0.44620E+00
  rms(prec ) = 0.49589E+00
  weight for this iteration     100.00

 eigenvalues of (default mixing * dielectric matrix)
  average eigenvalue GAMMA=   0.6100
  2.1737  1.1810  0.9641  0.5209  0.5209  0.0999  0.0094  0.0082  0.0114

 Free energy of the ion-electron system (eV)
  ---------------------------------------------------
  alpha Z        PSCENC =       230.08046017
  Ewald energy   TEWEN  =      9584.62530698
  -Hartree energ DENC   =    -11617.11276761
  -exchange      EXHF   =         0.00000000
  -V(xc)+E(xc)   XCENC  =       296.11752140
  PAW double counting   =      6398.36887850    -6409.41120619
  entropy T*S    EENTRO =        -0.00000000
  eigenvalues    EBANDS =     -1342.02807444
  atomic energy  EATOM  =      2606.65040413
  Solvation  Ediel_sol  =         0.00000000
  ---------------------------------------------------
  free energy    TOTEN  =      -252.70947707 eV

  energy without entropy =     -252.70947707  energy(sigma->0) =     -252.70947707


--------------------------------------------------------------------------------------------------------




--------------------------------------- Iteration      1(  17)  ---------------------------------------


    POTLOK:  cpu time    0.4543: real time    0.4556
    SETDIJ:  cpu time    0.0025: real time    0.0025
    EDDIAG:  cpu time    0.4231: real time    0.4231
  RMM-DIIS:  cpu time    1.8560: real time    1.8568
    ORTHCH:  cpu time    0.0512: real time    0.0513
       DOS:  cpu time    0.0006: real time    0.0006
    CHARGE:  cpu time    0.2782: real time    0.2783
    MIXING:  cpu time    0.0180: real time    0.0180
    --------------------------------------------
      LOOP:  cpu time    3.0839: real time    3.0862

 eigenvalue-minimisations  :   195
 total energy-change (2. order) : 0.2032138E+02  (-0.8003431E+01)
 number of electron      92.0000012 magnetization 
 augmentation part        2.1864161 magnetization 

 DIPCOR: dipole corrections for dipol
 direction  1 min pos   105, direction  2 min pos    77, direction  3 min pos   184,
 dipolmoment          -9.225658     -0.366053   -154.478947 electrons x Angstroem
 Tr[quadrupol]     -1515.707718

 energy correction for charged system         0.000000 eV
 dipol+quadrupol energy correction          -46.229491 eV
 added-field ion interaction        551.250949 eV  (added to PSCEN)


 Broyden mixing:
  rms(total) = 0.88762E+00    rms(broyden)= 0.88735E+00
  rms(prec ) = 0.99931E+00
  weight for this iteration     100.00

 eigenvalues of (default mixing * dielectric matrix)
  average eigenvalue GAMMA=   0.5617
  2.1507  1.2367  0.9191  0.5584  0.5584  0.1010  0.0638  0.0094  0.0082  0.0114

 Free energy of the ion-electron system (eV)
  ---------------------------------------------------
  alpha Z        PSCENC =       507.29427051
  Ewald energy   TEWEN  =      9584.62530698
  -Hartree energ DENC   =    -11623.29824149
  -exchange      EXHF   =         0.00000000
  -V(xc)+E(xc)   XCENC  =       296.29515490
  PAW double counting   =      6438.86340830    -6449.90291774
  entropy T*S    EENTRO =        -0.00000000
  eigenvalues    EBANDS =     -1592.91548367
  atomic energy  EATOM  =      2606.65040413
  Solvation  Ediel_sol  =         0.00000000
  ---------------------------------------------------
  free energy    TOTEN  =      -232.38809807 eV

  energy without entropy =     -232.38809807  energy(sigma->0) =     -232.38809807


--------------------------------------------------------------------------------------------------------




--------------------------------------- Iteration      1(  18)  ---------------------------------------


    POTLOK:  cpu time    0.4552: real time    0.4558
    SETDIJ:  cpu time    0.0021: real time    0.0021
    EDDIAG:  cpu time    0.4179: real time    0.4181
  RMM-DIIS:  cpu time    1.8465: real time    1.8472
    ORTHCH:  cpu time    0.0510: real time    0.0510
       DOS:  cpu time    0.0005: real time    0.0005
    CHARGE:  cpu time    0.2783: real time    0.2783
    MIXING:  cpu time    0.0191: real time    0.0192
    --------------------------------------------
      LOOP:  cpu time    3.0706: real time    3.0723

 eigenvalue-minimisations  :   202
 total energy-change (2. order) :-0.5805919E+00  (-0.5797003E+00)
 number of electron      92.0000012 magnetization 
 augmentation part        2.2148992 magnetization 

 DIPCOR: dipole corrections for dipol
 direction  1 min pos   106, direction  2 min pos    77, direction  3 min pos   184,
 dipolmoment           9.842658     -0.356735   -154.718839 electrons x Angstroem
 Tr[quadrupol]     -1520.254883

 energy correction for charged system         0.000000 eV
 dipol+quadrupol energy correction          -46.392956 eV
 added-field ion interaction        585.503749 eV  (added to PSCEN)


 Broyden mixing:
  rms(total) = 0.95337E+00    rms(broyden)= 0.95331E+00
  rms(prec ) = 0.10723E+01
  weight for this iteration     100.00

 eigenvalues of (default mixing * dielectric matrix)
  average eigenvalue GAMMA=   0.5225
  2.1459  1.2581  0.8951  0.5985  0.4723  0.1016  0.1237  0.1237  0.0094  0.0082
  0.0113

 Free energy of the ion-electron system (eV)
  ---------------------------------------------------
  alpha Z        PSCENC =       541.38360547
  Ewald energy   TEWEN  =      9584.62530698
  -Hartree energ DENC   =    -11621.38039142
  -exchange      EXHF   =         0.00000000
  -V(xc)+E(xc)   XCENC  =       296.22771633
  PAW double counting   =      6432.14570698    -6443.17074483
  entropy T*S    EENTRO =        -0.00000000
  eigenvalues    EBANDS =     -1629.45029365
  atomic energy  EATOM  =      2606.65040413
  Solvation  Ediel_sol  =         0.00000000
  ---------------------------------------------------
  free energy    TOTEN  =      -232.96869000 eV

  energy without entropy =     -232.96869000  energy(sigma->0) =     -232.96869000


--------------------------------------------------------------------------------------------------------




--------------------------------------- Iteration      1(  19)  ---------------------------------------


    POTLOK:  cpu time    0.4505: real time    0.4507
    SETDIJ:  cpu time    0.0021: real time    0.0021
    EDDIAG:  cpu time    0.4206: real time    0.4207
  RMM-DIIS:  cpu time    1.8842: real time    1.8846
    ORTHCH:  cpu time    0.0541: real time    0.0541
       DOS:  cpu time    0.0004: real time    0.0004
    CHARGE:  cpu time    0.2749: real time    0.2749
    MIXING:  cpu time    0.0193: real time    0.0193
    --------------------------------------------
      LOOP:  cpu time    3.1062: real time    3.1069

 eigenvalue-minimisations  :   208
 total energy-change (2. order) :-0.4542339E-01  (-0.5742165E-01)
 number of electron      92.0000012 magnetization 
 augmentation part        2.2171201 magnetization 

 DIPCOR: dipole corrections for dipol
 direction  1 min pos   106, direction  2 min pos    77, direction  3 min pos   184,
 dipolmoment           9.997142     -0.357521   -154.676780 electrons x Angstroem
 Tr[quadrupol]     -1520.433671

 energy correction for charged system         0.000000 eV
 dipol+quadrupol energy correction          -46.376390 eV
 added-field ion interaction        585.632873 eV  (added to PSCEN)


 Broyden mixing:
  rms(total) = 0.97436E+00    rms(broyden)= 0.97435E+00
  rms(prec ) = 0.10959E+01
  weight for this iteration     100.00

 eigenvalues of (default mixing * dielectric matrix)
  average eigenvalue GAMMA=   0.4955
  2.1511  1.2519  0.8979  0.6236  0.4170  0.1585  0.1573  0.1573  0.1020  0.0094
  0.0082  0.0113

 Free energy of the ion-electron system (eV)
  ---------------------------------------------------
  alpha Z        PSCENC =       541.52929530
  Ewald energy   TEWEN  =      9584.62530698
  -Hartree energ DENC   =    -11621.31576292
  -exchange      EXHF   =         0.00000000
  -V(xc)+E(xc)   XCENC  =       296.25160874
  PAW double counting   =      6432.54416278    -6443.56277446
  entropy T*S    EENTRO =        -0.00000000
  eigenvalues    EBANDS =     -1629.73635393
  atomic energy  EATOM  =      2606.65040413
  Solvation  Ediel_sol  =         0.00000000
  ---------------------------------------------------
  free energy    TOTEN  =      -233.01411339 eV

  energy without entropy =     -233.01411339  energy(sigma->0) =     -233.01411339


--------------------------------------------------------------------------------------------------------




--------------------------------------- Iteration      1(  20)  ---------------------------------------


    POTLOK:  cpu time    0.4535: real time    0.4544
    SETDIJ:  cpu time    0.0025: real time    0.0025
    EDDIAG:  cpu time    0.4200: real time    0.4200
  RMM-DIIS:  cpu time    1.8416: real time    1.8422
    ORTHCH:  cpu time    0.0501: real time    0.0502
       DOS:  cpu time    0.0003: real time    0.0003
    CHARGE:  cpu time    0.2753: real time    0.2753
    MIXING:  cpu time    0.0196: real time    0.0196
    --------------------------------------------
      LOOP:  cpu time    3.0630: real time    3.0645

 eigenvalue-minimisations  :   205
 total energy-change (2. order) :-0.5788386E-02  (-0.4348638E-02)
 number of electron      92.0000012 magnetization 
 augmentation part        2.2179942 magnetization 

 DIPCOR: dipole corrections for dipol
 direction  1 min pos   106, direction  2 min pos    77, direction  3 min pos   184,
 dipolmoment           9.962517     -0.357743   -154.702307 electrons x Angstroem
 Tr[quadrupol]     -1520.344096

 energy correction for charged system         0.000000 eV
 dipol+quadrupol energy correction          -46.389665 eV
 added-field ion interaction        585.664006 eV  (added to PSCEN)


 Broyden mixing:
  rms(total) = 0.97699E+00    rms(broyden)= 0.97699E+00
  rms(prec ) = 0.10992E+01
  weight for this iteration     100.00

 eigenvalues of (default mixing * dielectric matrix)
  average eigenvalue GAMMA=   0.5238
  2.1496  1.2430  0.8787  0.6491  0.5187  0.3969  0.3489  0.3489  0.1438  0.1027
  0.0094  0.0082  0.0113

 Free energy of the ion-electron system (eV)
  ---------------------------------------------------
  alpha Z        PSCENC =       541.54715340
  Ewald energy   TEWEN  =      9584.62530698
  -Hartree energ DENC   =    -11621.26634125
  -exchange      EXHF   =         0.00000000
  -V(xc)+E(xc)   XCENC  =       296.25803429
  PAW double counting   =      6434.16713469    -6445.18768192
  entropy T*S    EENTRO =        -0.00000000
  eigenvalues    EBANDS =     -1629.81391210
  atomic energy  EATOM  =      2606.65040413
  Solvation  Ediel_sol  =         0.00000000
  ---------------------------------------------------
  free energy    TOTEN  =      -233.01990178 eV

  energy without entropy =     -233.01990178  energy(sigma->0) =     -233.01990178


--------------------------------------------------------------------------------------------------------




--------------------------------------- Iteration      1(  21)  ---------------------------------------


    POTLOK:  cpu time    0.4561: real time    0.4564
    SETDIJ:  cpu time    0.0023: real time    0.0023
    EDDIAG:  cpu time    0.4215: real time    0.4216
  RMM-DIIS:  cpu time    1.8370: real time    1.8372
    ORTHCH:  cpu time    0.0511: real time    0.0511
       DOS:  cpu time    0.0005: real time    0.0005
    CHARGE:  cpu time    0.2719: real time    0.2719
    MIXING:  cpu time    0.0205: real time    0.0205
    --------------------------------------------
      LOOP:  cpu time    3.0611: real time    3.0617

 eigenvalue-minimisations  :   198
 total energy-change (2. order) : 0.5206402E-01  (-0.1612753E-02)
 number of electron      92.0000012 magnetization 
 augmentation part        2.2174586 magnetization 

 DIPCOR: dipole corrections for dipol
 direction  1 min pos   106, direction  2 min pos    77, direction  3 min pos   184,
 dipolmoment           9.752202     -0.352153   -154.711417 electrons x Angstroem
 Tr[quadrupol]     -1519.428589

 energy correction for charged system         0.000000 eV
 dipol+quadrupol energy correction          -46.386166 eV
 added-field ion interaction        585.330159 eV  (added to PSCEN)


 Broyden mixing:
  rms(total) = 0.97451E+00    rms(broyden)= 0.97451E+00
  rms(prec ) = 0.10961E+01
  weight for this iteration     100.00

 eigenvalues of (default mixing * dielectric matrix)
  average eigenvalue GAMMA=   0.6637
  2.1312  1.0189  1.3905  0.8754  0.8754  0.8774  0.6109  0.6100  0.6100  0.1603
  0.1026  0.0094  0.0082  0.0113

 Free energy of the ion-electron system (eV)
  ---------------------------------------------------
  alpha Z        PSCENC =       541.21680469
  Ewald energy   TEWEN  =      9584.62530698
  -Hartree energ DENC   =    -11622.24538918
  -exchange      EXHF   =         0.00000000
  -V(xc)+E(xc)   XCENC  =       296.25911054
  PAW double counting   =      6437.11181669    -6448.14418003
  entropy T*S    EENTRO =        -0.00000000
  eigenvalues    EBANDS =     -1628.44171158
  atomic energy  EATOM  =      2606.65040413
  Solvation  Ediel_sol  =         0.00000000
  ---------------------------------------------------
  free energy    TOTEN  =      -232.96783776 eV

  energy without entropy =     -232.96783776  energy(sigma->0) =     -232.96783776


--------------------------------------------------------------------------------------------------------




--------------------------------------- Iteration      1(  22)  ---------------------------------------


    POTLOK:  cpu time    0.4585: real time    0.4593
    SETDIJ:  cpu time    0.0028: real time    0.0028
    EDDIAG:  cpu time    0.4195: real time    0.4196
  RMM-DIIS:  cpu time    1.6644: real time    1.6646
    ORTHCH:  cpu time    0.0547: real time    0.0547
       DOS:  cpu time    0.0006: real time    0.0006
    CHARGE:  cpu time    0.2722: real time    0.2722
    MIXING:  cpu time    0.0219: real time    0.0222
    --------------------------------------------
      LOOP:  cpu time    2.8945: real time    2.8959

 eigenvalue-minimisations  :   192
 total energy-change (2. order) :-0.2270082E+02  (-0.1996536E+02)
 number of electron      92.0000011 magnetization 
 augmentation part        2.1845240 magnetization 

 DIPCOR: dipole corrections for dipol
 direction  1 min pos   106, direction  2 min pos   198, direction  3 min pos   245,
 dipolmoment           6.180676    -20.521148      0.403307 electrons x Angstroem
 Tr[quadrupol]      -629.905971

 energy correction for charged system         0.000000 eV
 dipol+quadrupol energy correction           -0.886912 eV
 added-field ion interaction         82.201888 eV  (added to PSCEN)


 Broyden mixing:
  rms(total) = 0.39474E+00    rms(broyden)= 0.39405E+00
  rms(prec ) = 0.42832E+00
  weight for this iteration     100.00

 eigenvalues of (default mixing * dielectric matrix)
  average eigenvalue GAMMA=   0.6655
  2.1890  1.0817  0.8775  0.8775  1.1054  1.0769  0.6321  0.6321  0.6094  0.6094
  0.1602  0.1026  0.0094  0.0082  0.0113

 Free energy of the ion-electron system (eV)
  ---------------------------------------------------
  alpha Z        PSCENC =        83.58778808
  Ewald energy   TEWEN  =      9584.62530698
  -Hartree energ DENC   =    -11619.60366506
  -exchange      EXHF   =         0.00000000
  -V(xc)+E(xc)   XCENC  =       295.90110235
  PAW double counting   =      6477.78284973    -6488.93523095
  entropy T*S    EENTRO =        -0.00000000
  eigenvalues    EBANDS =     -1195.67721229
  atomic energy  EATOM  =      2606.65040413
  Solvation  Ediel_sol  =         0.00000000
  ---------------------------------------------------
  free energy    TOTEN  =      -255.66865704 eV

  energy without entropy =     -255.66865704  energy(sigma->0) =     -255.66865704


--------------------------------------------------------------------------------------------------------




--------------------------------------- Iteration      1(  23)  ---------------------------------------


    POTLOK:  cpu time    0.4507: real time    0.4512
    SETDIJ:  cpu time    0.0026: real time    0.0026
    EDDIAG:  cpu time    0.4188: real time    0.4189
  RMM-DIIS:  cpu time    1.8099: real time    1.8102
    ORTHCH:  cpu time    0.0508: real time    0.0508
       DOS:  cpu time    0.0004: real time    0.0004
    CHARGE:  cpu time    0.2772: real time    0.2773
    MIXING:  cpu time    0.0223: real time    0.0223
    --------------------------------------------
      LOOP:  cpu time    3.0327: real time    3.0336

 eigenvalue-minimisations  :   193
 total energy-change (2. order) : 0.1594621E+02  (-0.5114632E+01)
 number of electron      92.0000012 magnetization 
 augmentation part        2.0415580 magnetization 

 DIPCOR: dipole corrections for dipol
 direction  1 min pos   136, direction  2 min pos   214, direction  3 min pos   253,
 dipolmoment        -105.203432     -2.286918      0.518929 electrons x Angstroem
 Tr[quadrupol]      -499.579808

 energy correction for charged system         0.000000 eV
 dipol+quadrupol energy correction          -21.374645 eV
 added-field ion interaction        -46.331273 eV  (added to PSCEN)


 Broyden mixing:
  rms(total) = 0.89413E+00    rms(broyden)= 0.89386E+00
  rms(prec ) = 0.11073E+01
  weight for this iteration     100.00

 eigenvalues of (default mixing * dielectric matrix)
  average eigenvalue GAMMA=   0.6244
  2.1739  1.0837  0.8806  0.8806  1.1439  1.0473  0.6297  0.6297  0.6082  0.6082
  0.1602  0.1026  0.0094  0.0082  0.0113  0.0126

 Free energy of the ion-electron system (eV)
  ---------------------------------------------------
  alpha Z        PSCENC =       -65.43310569
  Ewald energy   TEWEN  =      9584.62530698
  -Hartree energ DENC   =    -11616.49686749
  -exchange      EXHF   =         0.00000000
  -V(xc)+E(xc)   XCENC  =       295.78938320
  PAW double counting   =      6469.68575391    -6480.84167307
  entropy T*S    EENTRO =        -0.00021471
  eigenvalues    EBANDS =     -1033.70143866
  atomic energy  EATOM  =      2606.65040413
  Solvation  Ediel_sol  =         0.00000000
  ---------------------------------------------------
  free energy    TOTEN  =      -239.72245141 eV

  energy without entropy =     -239.72223670  energy(sigma->0) =     -239.72234405


--------------------------------------------------------------------------------------------------------




--------------------------------------- Iteration      1(  24)  ---------------------------------------


    POTLOK:  cpu time    0.4552: real time    0.4560
    SETDIJ:  cpu time    0.0021: real time    0.0021
    EDDIAG:  cpu time    0.4185: real time    0.4187
  RMM-DIIS:  cpu time    1.7948: real time    1.7951
    ORTHCH:  cpu time    0.0512: real time    0.0512
       DOS:  cpu time    0.0005: real time    0.0005
    CHARGE:  cpu time    0.2732: real time    0.2732
    MIXING:  cpu time    0.0233: real time    0.0233
    --------------------------------------------
      LOOP:  cpu time    3.0189: real time    3.0202

 eigenvalue-minimisations  :   193
 total energy-change (2. order) :-0.1591262E+02  (-0.3351321E+01)
 number of electron      92.0000011 magnetization 
 augmentation part        2.1606790 magnetization 

 DIPCOR: dipole corrections for dipol
 direction  1 min pos   142, direction  2 min pos   216, direction  3 min pos   254,
 dipolmoment          -4.777102     -1.983903      0.522680 electrons x Angstroem
 Tr[quadrupol]      -304.757937

 energy correction for charged system         0.000000 eV
 dipol+quadrupol energy correction           -0.052175 eV
 added-field ion interaction          1.643270 eV  (added to PSCEN)


 Broyden mixing:
  rms(total) = 0.40276E+00    rms(broyden)= 0.40245E+00
  rms(prec ) = 0.43366E+00
  weight for this iteration     100.00

 eigenvalues of (default mixing * dielectric matrix)
  average eigenvalue GAMMA=   0.6121
  2.1536  1.1174  0.8983  0.8983  1.0853  1.0853  0.7038  0.7038  0.5914  0.5914
  0.2730  0.1602  0.1026  0.0094  0.0082  0.0113  0.0119

 Free energy of the ion-electron system (eV)
  ---------------------------------------------------
  alpha Z        PSCENC =         3.86390729
  Ewald energy   TEWEN  =      9584.62530698
  -Hartree energ DENC   =    -11615.69083363
  -exchange      EXHF   =         0.00000000
  -V(xc)+E(xc)   XCENC  =       295.77487144
  PAW double counting   =      6465.34863066    -6476.50271204
  entropy T*S    EENTRO =        -0.00000000
  eigenvalues    EBANDS =     -1119.70464746
  atomic energy  EATOM  =      2606.65040413
  Solvation  Ediel_sol  =         0.00000000
  ---------------------------------------------------
  free energy    TOTEN  =      -255.63507263 eV

  energy without entropy =     -255.63507263  energy(sigma->0) =     -255.63507263


--------------------------------------------------------------------------------------------------------




--------------------------------------- Iteration      1(  25)  ---------------------------------------


    POTLOK:  cpu time    0.4552: real time    0.4555
    SETDIJ:  cpu time    0.0019: real time    0.0019
    EDDIAG:  cpu time    0.4203: real time    0.4203
  RMM-DIIS:  cpu time    1.8303: real time    1.8305
    ORTHCH:  cpu time    0.0512: real time    0.0513
       DOS:  cpu time    0.0002: real time    0.0002
    CHARGE:  cpu time    0.2718: real time    0.2718
    MIXING:  cpu time    0.0250: real time    0.0250
    --------------------------------------------
      LOOP:  cpu time    3.0560: real time    3.0566

 eigenvalue-minimisations  :   199
 total energy-change (2. order) :-0.4848144E-01  (-0.9950346E-01)
 number of electron      92.0000011 magnetization 
 augmentation part        2.1649054 magnetization 

 DIPCOR: dipole corrections for dipol
 direction  1 min pos   142, direction  2 min pos   217, direction  3 min pos   255,
 dipolmoment          -4.636862     -1.815312      0.528471 electrons x Angstroem
 Tr[quadrupol]      -303.695769

 energy correction for charged system         0.000000 eV
 dipol+quadrupol energy correction           -0.048400 eV
 added-field ion interaction          1.192634 eV  (added to PSCEN)


 Broyden mixing:
  rms(total) = 0.40211E+00    rms(broyden)= 0.40208E+00
[...]
 Tr[quadrupol]        51.478632

 energy correction for charged system         0.000000 eV
 dipol+quadrupol energy correction           -0.000002 eV
 added-field ion interaction          0.002880 eV  (added to PSCEN)


 eigenvalues of (default mixing * dielectric matrix)
  average eigenvalue GAMMA=   2.1366
  2.1366

  free energy =  -0.255102080319E+03  energy without entropy=  -0.255102080319E+03


--------------------------------------------------------------------------------------------------------




--------------------------------------- Iteration     46(   3)  ---------------------------------------


    POTLOK:  cpu time    0.4656: real time    0.4663
    SETDIJ:  cpu time    0.0022: real time    0.0022
    EDDIAG:  cpu time    0.4308: real time    0.4310
  RMM-DIIS:  cpu time    1.6713: real time    1.6744
    ORTHCH:  cpu time    0.0547: real time    0.0547
       DOS:  cpu time    0.0002: real time    0.0002
    CHARGE:  cpu time    0.2686: real time    0.2689
    MIXING:  cpu time    0.0138: real time    0.0138
    --------------------------------------------
      LOOP:  cpu time    2.9072: real time    2.9115

 eigenvalue-minimisations  :   192
 total energy-change (2. order) :-0.3349523E-05  (-0.6937799E-05)
 number of electron      91.9999976 magnetization 
 augmentation part        2.1451341 magnetization 

 DIPCOR: dipole corrections for dipol
 direction  1 min pos    29, direction  2 min pos    29, direction  3 min pos    30,
 dipolmoment           0.015677      0.028467      0.014547 electrons x Angstroem
 Tr[quadrupol]        51.491599

 energy correction for charged system         0.000000 eV
 dipol+quadrupol energy correction           -0.000002 eV
 added-field ion interaction          0.000615 eV  (added to PSCEN)


 eigenvalues of (default mixing * dielectric matrix)
  average eigenvalue GAMMA=   1.6971
  1.0090  2.3852

  free energy =  -0.255102083669E+03  energy without entropy=  -0.255102083669E+03


--------------------------------------------------------------------------------------------------------




--------------------------------------- Iteration     46(   4)  ---------------------------------------


    POTLOK:  cpu time    0.4686: real time    0.4696
    SETDIJ:  cpu time    0.0020: real time    0.0020
    EDDIAG:  cpu time    0.4176: real time    0.4180
  RMM-DIIS:  cpu time    1.4275: real time    1.4278
    ORTHCH:  cpu time    0.0504: real time    0.0504
       DOS:  cpu time    0.0002: real time    0.0002
    CHARGE:  cpu time    0.2691: real time    0.2691
    MIXING:  cpu time    0.0136: real time    0.0136
    --------------------------------------------
      LOOP:  cpu time    2.6491: real time    2.6508

 eigenvalue-minimisations  :   146
 total energy-change (2. order) : 0.9276573E-07  (-0.2631716E-06)
 number of electron      91.9999976 magnetization 
 augmentation part        2.1451330 magnetization 

 DIPCOR: dipole corrections for dipol
 direction  1 min pos    29, direction  2 min pos    29, direction  3 min pos    29,
 dipolmoment           0.015662      0.028507      0.014553 electrons x Angstroem
 Tr[quadrupol]        51.493899

 energy correction for charged system         0.000000 eV
 dipol+quadrupol energy correction           -0.000002 eV
 added-field ion interaction          0.000154 eV  (added to PSCEN)


 eigenvalues of (default mixing * dielectric matrix)
  average eigenvalue GAMMA=   1.8450
  0.9959  2.0189  2.5201

  free energy =  -0.255102083576E+03  energy without entropy=  -0.255102083576E+03


--------------------------------------------------------------------------------------------------------




--------------------------------------- Iteration     46(   5)  ---------------------------------------


    POTLOK:  cpu time    0.4693: real time    0.4700
    SETDIJ:  cpu time    0.0020: real time    0.0020
    EDDIAG:  cpu time    0.4241: real time    0.4242
  RMM-DIIS:  cpu time    1.3879: real time    1.3886
    ORTHCH:  cpu time    0.0515: real time    0.0516
       DOS:  cpu time    0.0006: real time    0.0006
    --------------------------------------------
      LOOP:  cpu time    2.3354: real time    2.3370

 eigenvalue-minimisations  :   146
 total energy-change (2. order) :-0.1262651E-06  (-0.3089013E-06)
 number of electron      91.9999976 magnetization 
 augmentation part        2.1451330 magnetization 

 DIPCOR: dipole corrections for dipol
 direction  1 min pos    29, direction  2 min pos    29, direction  3 min pos    30,
 dipolmoment           0.015636      0.028579      0.014567 electrons x Angstroem
 Tr[quadrupol]        51.490748

 energy correction for charged system         0.000000 eV
 dipol+quadrupol energy correction           -0.000002 eV
 added-field ion interaction          0.000617 eV  (added to PSCEN)


  free energy =  -0.255102083702E+03  energy without entropy=  -0.255102083702E+03


--------------------------------------------------------------------------------------------------------




------------------------ aborting loop because EDIFF is reached ----------------------------------------


    CHARGE:  cpu time    0.2695: real time    0.2696
    FORLOC:  cpu time    0.1034: real time    0.1034
    FORNL :  cpu time    0.5387: real time    0.5389
    STRESS:  cpu time    1.5911: real time    1.5914
    FORCOR:  cpu time    0.4049: real time    0.4050
    FORHAR:  cpu time    0.1863: real time    0.1864
    MIXING:  cpu time    0.0130: real time    0.0130
    OFIELD:  cpu time    0.0001: real time    0.0001

  Number of pair interactions contributing to vdW energy:   21476
  Edisp (eV):   -1.50850
    FORVDW:  cpu time    0.0032: real time    0.0032

  FORCE on cell =-STRESS in cart. coord.  units (eV):
  Direction    XX          YY          ZZ          XY          YZ          ZX
  --------------------------------------------------------------------------------------
  Alpha Z     2.27281     2.27281     2.27281
  Ewald    7585.58057  1159.37238   892.20844   552.98290   -66.42018   103.32359
  Hartree  7952.33367  1991.17146  1793.79667   491.94058   -55.89014    93.58502
  E(xc)    -323.91169  -324.63078  -324.78932     0.09014    -0.01228     0.02148
  Local  -16329.45629 -3934.01357 -3458.90754 -1048.49918   123.45349  -197.77088
  n-local  -150.26429  -151.24532  -152.91798     0.62387    -0.25673     0.19065
  augment    -1.33906    -1.43166    -1.52960     0.03566    -0.01122     0.00825
  Kinetic  1265.56839  1257.48766  1248.80043     3.01815    -0.84577     0.67416
  Fock        0.00000     0.00000     0.00000     0.00000     0.00000     0.00000
  vdW        -1.70529    -0.42227    -0.30519    -0.18225     0.03201    -0.01499
  -------------------------------------------------------------------------------------
  Total      -0.92119    -1.43928    -1.37128     0.00987     0.04918     0.01728
  in kB      -0.09446    -0.14758    -0.14061     0.00101     0.00504     0.00177
  external pressure =       -0.13 kB  Pullay stress =        0.00 kB



--------------------------------------------------------------------------------------------------------



  FREE ENERGIE OF THE ION-ELECTRON SYSTEM (eV)
  ---------------------------------------------------
  free  energy   TOTEN  =      -256.61058434 eV

  energy  without entropy=     -256.61058434  energy(sigma->0) =     -256.61058434
 
 d Force = 0.1072953E-03[ 0.202E-06, 0.214E-03]  d Energy = 0.1081735E-03-0.878E-06
 d Force = 0.2877125E+00[ 0.289E+00, 0.286E+00]  d Ewald  = 0.2877126E+00-0.702E-07


--------------------------------------------------------------------------------------------------------


    POTLOK:  cpu time    0.4738: real time    0.4742


--------------------------------------------------------------------------------------------------------




--------------------------------------------------------------------------------------------------------


    WAVPRE:  cpu time    0.1278: real time    0.1296
    FEWALD:  cpu time    0.0044: real time    0.0044
    ORTHCH:  cpu time    0.2200: real time    0.2206
     LOOP+:  cpu time   18.0646: real time   18.1188


--------------------------------------- Iteration     47(   1)  ---------------------------------------


    POTLOK:  cpu time    0.4631: real time    0.4635
    SETDIJ:  cpu time    0.0020: real time    0.0020
     EDDAV:  cpu time    3.0061: real time    3.0117
       DOS:  cpu time    0.0011: real time    0.0011
    CHARGE:  cpu time    0.2689: real time    0.2689
    MIXING:  cpu time    0.0178: real time    0.0178
    --------------------------------------------
      LOOP:  cpu time    3.7590: real time    3.7648

 eigenvalue-minimisations  :   288
 total energy-change (2. order) :-0.9633626E-04  (-0.3632478E-02)
 number of electron      91.9999975 magnetization 
 augmentation part        2.1449494 magnetization 

 DIPCOR: dipole corrections for dipol
 direction  1 min pos    29, direction  2 min pos    29, direction  3 min pos    29,
 dipolmoment           0.015627      0.028599      0.014568 electrons x Angstroem
 Tr[quadrupol]        51.493254

 energy correction for charged system         0.000000 eV
 dipol+quadrupol energy correction           -0.000002 eV
 added-field ion interaction          0.000155 eV  (added to PSCEN)


  free energy =  -0.255102179912E+03  energy without entropy=  -0.255102179912E+03


--------------------------------------------------------------------------------------------------------




--------------------------------------- Iteration     47(   2)  ---------------------------------------


    POTLOK:  cpu time    0.4681: real time    0.4692
    SETDIJ:  cpu time    0.0021: real time    0.0021
    EDDIAG:  cpu time    0.4060: real time    0.4323
  RMM-DIIS:  cpu time    1.6930: real time    1.6948
    ORTHCH:  cpu time    0.0511: real time    0.0512
       DOS:  cpu time    0.0005: real time    0.0005
    CHARGE:  cpu time    0.2780: real time    0.2783
    MIXING:  cpu time    0.0133: real time    0.0133
    --------------------------------------------
      LOOP:  cpu time    2.9121: real time    2.9417

 eigenvalue-minimisations  :   192
 total energy-change (2. order) :-0.1858623E-04  (-0.4395639E-04)
 number of electron      91.9999975 magnetization 
 augmentation part        2.1449472 magnetization 

 DIPCOR: dipole corrections for dipol
 direction  1 min pos    28, direction  2 min pos    30, direction  3 min pos    30,
 dipolmoment           0.015662      0.028552      0.014553 electrons x Angstroem
 Tr[quadrupol]        51.488596

 energy correction for charged system         0.000000 eV
 dipol+quadrupol energy correction           -0.000002 eV
 added-field ion interaction          0.001025 eV  (added to PSCEN)


 eigenvalues of (default mixing * dielectric matrix)
  average eigenvalue GAMMA=   2.0297
  2.0297

  free energy =  -0.255102198499E+03  energy without entropy=  -0.255102198499E+03


--------------------------------------------------------------------------------------------------------




--------------------------------------- Iteration     47(   3)  ---------------------------------------


    POTLOK:  cpu time    0.4670: real time    0.4673
    SETDIJ:  cpu time    0.0020: real time    0.0020
    EDDIAG:  cpu time    0.4181: real time    0.4181
  RMM-DIIS:  cpu time    1.6755: real time    1.6759
    ORTHCH:  cpu time    0.0503: real time    0.0503
       DOS:  cpu time    0.0004: real time    0.0004
    CHARGE:  cpu time    0.3110: real time    0.3110
    MIXING:  cpu time    0.0139: real time    0.0139
    --------------------------------------------
      LOOP:  cpu time    2.9382: real time    2.9390

 eigenvalue-minimisations  :   191
 total energy-change (2. order) :-0.1413298E-05  (-0.5410061E-05)
 number of electron      91.9999975 magnetization 
 augmentation part        2.1449730 magnetization 

 DIPCOR: dipole corrections for dipol
 direction  1 min pos    29, direction  2 min pos    29, direction  3 min pos    30,
 dipolmoment           0.015659      0.028550      0.014564 electrons x Angstroem
 Tr[quadrupol]        51.491093

 energy correction for charged system         0.000000 eV
 dipol+quadrupol energy correction           -0.000002 eV
 added-field ion interaction          0.000617 eV  (added to PSCEN)


 eigenvalues of (default mixing * dielectric matrix)
  average eigenvalue GAMMA=   1.6897
  1.0033  2.3762

  free energy =  -0.255102199912E+03  energy without entropy=  -0.255102199912E+03


--------------------------------------------------------------------------------------------------------




--------------------------------------- Iteration     47(   4)  ---------------------------------------


    POTLOK:  cpu time    0.4775: real time    0.4788
    SETDIJ:  cpu time    0.0022: real time    0.0022
    EDDIAG:  cpu time    0.4172: real time    0.4172
  RMM-DIIS:  cpu time    1.4165: real time    1.4170
    ORTHCH:  cpu time    0.0613: real time    0.0613
       DOS:  cpu time    0.0003: real time    0.0003
    CHARGE:  cpu time    0.2685: real time    0.2686
    MIXING:  cpu time    0.0148: real time    0.0148
    --------------------------------------------
      LOOP:  cpu time    2.6583: real time    2.6602

 eigenvalue-minimisations  :   146
 total energy-change (2. order) :-0.2173092E-06  (-0.2458059E-06)
 number of electron      91.9999975 magnetization 
 augmentation part        2.1449733 magnetization 

 DIPCOR: dipole corrections for dipol
 direction  1 min pos    29, direction  2 min pos    29, direction  3 min pos    29,
 dipolmoment           0.015633      0.028602      0.014580 electrons x Angstroem
 Tr[quadrupol]        51.493917

 energy correction for charged system         0.000000 eV
 dipol+quadrupol energy correction           -0.000002 eV
 added-field ion interaction          0.000155 eV  (added to PSCEN)


 eigenvalues of (default mixing * dielectric matrix)
  average eigenvalue GAMMA=   1.8251
  1.0005  1.9624  2.5124

  free energy =  -0.255102200129E+03  energy without entropy=  -0.255102200129E+03


--------------------------------------------------------------------------------------------------------




--------------------------------------- Iteration     47(   5)  ---------------------------------------


    POTLOK:  cpu time    0.4648: real time    0.4654
    SETDIJ:  cpu time    0.0048: real time    0.0048
    EDDIAG:  cpu time    0.4240: real time    0.4242
  RMM-DIIS:  cpu time    1.4036: real time    1.4044
    ORTHCH:  cpu time    0.0505: real time    0.0505
       DOS:  cpu time    0.0005: real time    0.0005
    --------------------------------------------
      LOOP:  cpu time    2.3481: real time    2.3497

 eigenvalue-minimisations  :   146
 total energy-change (2. order) :-0.1533226E-07  (-0.1924427E-06)
 number of electron      91.9999975 magnetization 
 augmentation part        2.1449733 magnetization 

 DIPCOR: dipole corrections for dipol
 direction  1 min pos    29, direction  2 min pos    29, direction  3 min pos    29,
 dipolmoment           0.015586      0.028688      0.014604 electrons x Angstroem
 Tr[quadrupol]        51.494311

 energy correction for charged system         0.000000 eV
 dipol+quadrupol energy correction           -0.000002 eV
 added-field ion interaction          0.000156 eV  (added to PSCEN)


  free energy =  -0.255102200145E+03  energy without entropy=  -0.255102200145E+03


--------------------------------------------------------------------------------------------------------




------------------------ aborting loop because EDIFF is reached ----------------------------------------


    CHARGE:  cpu time    0.2719: real time    0.2719
    FORLOC:  cpu time    0.1032: real time    0.1032
    FORNL :  cpu time    0.5379: real time    0.5381
    STRESS:  cpu time    1.5638: real time    1.5701
    FORCOR:  cpu time    0.3928: real time    0.3928
    FORHAR:  cpu time    0.1951: real time    0.1951
    MIXING:  cpu time    0.0133: real time    0.0133
    OFIELD:  cpu time    0.0001: real time    0.0001

  Number of pair interactions contributing to vdW energy:   21476
  Edisp (eV):   -1.50854
    FORVDW:  cpu time    0.0032: real time    0.0032

  FORCE on cell =-STRESS in cart. coord.  units (eV):
  Direction    XX          YY          ZZ          XY          YZ          ZX
  --------------------------------------------------------------------------------------
  Alpha Z     2.27281     2.27281     2.27281
  Ewald    7584.92740  1160.48189   891.57544   552.72120   -66.04830   103.18448
  Hartree  7952.04323  1991.99072  1793.11118   491.77220   -55.69136    93.50611
  E(xc)    -323.90605  -324.62326  -324.78338     0.09030    -0.01178     0.02113
  Local  -16328.59347 -3935.92362 -3457.54415 -1048.08622   122.91543  -197.57232
  n-local  -150.25019  -151.22844  -152.91063     0.62553    -0.25873     0.18988
  augment    -1.33804    -1.43133    -1.52945     0.03583    -0.01147     0.00841
  Kinetic  1265.56377  1257.38410  1248.78224     3.01161    -0.86387     0.69100
  Fock        0.00000     0.00000     0.00000     0.00000     0.00000     0.00000
  vdW        -1.70360    -0.42189    -0.30517    -0.18169     0.03198    -0.01477
  -------------------------------------------------------------------------------------
  Total      -0.98414    -1.49901    -1.33111    -0.01125     0.06189     0.01393
  in kB      -0.10091    -0.15371    -0.13649    -0.00115     0.00635     0.00143
  external pressure =       -0.13 kB  Pullay stress =        0.00 kB



--------------------------------------------------------------------------------------------------------



  FREE ENERGIE OF THE ION-ELECTRON SYSTEM (eV)
  ---------------------------------------------------
  free  energy   TOTEN  =      -256.61073717 eV

  energy  without entropy=     -256.61073717  energy(sigma->0) =     -256.61073717
 
 d Force = 0.1522497E-03[ 0.246E-04, 0.280E-03]  d Energy = 0.1528330E-03-0.583E-06
 d Force = 0.1766773E+00[ 0.178E+00, 0.176E+00]  d Ewald  = 0.1766773E+00-0.627E-07


--------------------------------------------------------------------------------------------------------


    POTLOK:  cpu time    0.4716: real time    0.4717


--------------------------------------------------------------------------------------------------------


 Conjugate gradient step on ions:
 trial-energy change:   -0.000153  1 .order   -0.000152   -0.000280   -0.000025
  (g-gl).g = 0.167E-03      g.g   = 0.164E-03  gl.gl    = 0.204E-03
 g(Force)  = 0.164E-03   g(Stress)= 0.000E+00 ortho     = 0.111E-06
 gamma     =   0.82130
 trial     =   1.70233
 opt step  =   1.86598  (harmonic =   1.86598) maximal distance =0.00175517
 next E    =  -256.610738   (d E  =  -0.00015)


--------------------------------------------------------------------------------------------------------


  
 reached required accuracy - stopping structural energy minimisation
     LOOP+:  cpu time   18.1772: real time   18.2263
    4ORBIT:  cpu time    0.0000: real time    0.0000

 total amount of memory used by VASP MPI-rank0   208789. kBytes
=======================================================================

   base      :      30000. kBytes
   nonlr-proj:       4343. kBytes
   fftplans  :      26902. kBytes
   grid      :     136550. kBytes
   one-center:        144. kBytes
   wavefun   :      10850. kBytes
 
  
  
 General timing and accounting informations for this job:
 ========================================================
  
                  Total CPU time used (sec):     1067.700
                            User time (sec):      967.568
                          System time (sec):      100.132
                         Elapsed time (sec):     1072.385
  
                   Maximum memory used (kb):      819408.
                   Average memory used (kb):           0.
  
                          Minor page faults:      2976952
                          Major page faults:            0
                 Voluntary context switches:         5318
