 vasp.5.4.4.18Apr17-6-g9f103f2a35 (build Jun 30 2017 19:19:18) complex          
  
 executed on         MareNostrum4 date 2022.05.16  17:37:19
 running on   48 total cores
 distrk:  each k-point on   48 cores,    1 groups
 distr:  one band on NCORES_PER_BAND=   1 cores,   48 groups


--------------------------------------------------------------------------------------------------------


 INCAR:
 POTCAR:    PAW_PBE Pt 04Feb2005                  
 POTCAR:    PAW_PBE H 15Jun2001                   
 POTCAR:    PAW_PBE C 08Apr2002                   

 ----------------------------------------------------------------------------- 
|                                                                             |
|           W    W    AA    RRRRR   N    N  II  N    N   GGGG   !!!           |
|           W    W   A  A   R    R  NN   N  II  NN   N  G    G  !!!           |
|           W    W  A    A  R    R  N N  N  II  N N  N  G       !!!           |
|           W WW W  AAAAAA  RRRRR   N  N N  II  N  N N  G  GGG   !            |
|           WW  WW  A    A  R   R   N   NN  II  N   NN  G    G                |
|           W    W  A    A  R    R  N    N  II  N    N   GGGG   !!!           |
|                                                                             |
|      For optimal performance we recommend to set                            |
|        NCORE= 4 - approx SQRT( number of cores)                             |
|      NCORE specifies how many cores store one orbital (NPAR=cpu/NCORE).     |
|      This setting can  greatly improve the performance of VASP for DFT.     |
|      The default,   NCORE=1            might be grossly inefficient         |
|      on modern multi-core architectures or massively parallel machines.     |
|      Do your own testing !!!!                                               |
|      Unfortunately you need to use the default for GW and RPA calculations. |
|      (for HF NCORE is supported but not extensively tested yet)             |
|                                                                             |
 ----------------------------------------------------------------------------- 

 POTCAR:    PAW_PBE Pt 04Feb2005                  
  local pseudopotential read in
  partial core-charges read in
  partial kinetic energy density read in
  atomic valenz-charges read in
  non local Contribution for L=           2  read in
    real space projection operators read in
  non local Contribution for L=           2  read in
    real space projection operators read in
  non local Contribution for L=           0  read in
    real space projection operators read in
  non local Contribution for L=           0  read in
    real space projection operators read in
  non local Contribution for L=           1  read in
    real space projection operators read in
  non local Contribution for L=           1  read in
    real space projection operators read in
    PAW grid and wavefunctions read in
 
   number of l-projection  operators is LMAX  =           6
   number of lm-projection operators is LMMAX =          18
 
 POTCAR:    PAW_PBE H 15Jun2001                   
  local pseudopotential read in
  atomic valenz-charges read in
  non local Contribution for L=           0  read in
    real space projection operators read in
  non local Contribution for L=           0  read in
    real space projection operators read in
  non local Contribution for L=           1  read in
    real space projection operators read in
    PAW grid and wavefunctions read in
 
   number of l-projection  operators is LMAX  =           3
   number of lm-projection operators is LMMAX =           5
 
 POTCAR:    PAW_PBE C 08Apr2002                   
  local pseudopotential read in
  partial core-charges read in
  partial kinetic energy density read in
  atomic valenz-charges read in
  non local Contribution for L=           0  read in
    real space projection operators read in
  non local Contribution for L=           0  read in
    real space projection operators read in
  non local Contribution for L=           1  read in
    real space projection operators read in
  non local Contribution for L=           1  read in
    real space projection operators read in
    PAW grid and wavefunctions read in
 
   number of l-projection  operators is LMAX  =           4
   number of lm-projection operators is LMMAX =           8
 
 Optimization of the real space projectors (new method)

 maximal supplied QI-value         = 14.36
 optimisation between [QCUT,QGAM] = [ 10.77, 21.69] = [ 32.49,131.70] Ry 
 Optimized for a Real-space Cutoff    1.46 Angstroem

   l    n(q)    QCUT    max X(q) W(low)/X(q) W(high)/X(q)  e(spline) 
   2      9    10.771    66.195    0.13E-03    0.31E-03    0.27E-06
   2      9    10.771    64.643    0.13E-03    0.32E-03    0.28E-06
   0     10    10.771    95.520    0.41E-04    0.13E-03    0.15E-06
   0     10    10.771    63.403    0.40E-04    0.12E-03    0.14E-06
   1      9    10.771    19.961    0.42E-03    0.19E-03    0.28E-06
   1      9    10.771    13.289    0.35E-03    0.16E-03    0.23E-06
 Optimization of the real space projectors (new method)

 maximal supplied QI-value         = 34.20
 optimisation between [QCUT,QGAM] = [ 10.60, 21.55] = [ 31.48,130.03] Ry 
 Optimized for a Real-space Cutoff    1.23 Angstroem

   l    n(q)    QCUT    max X(q) W(low)/X(q) W(high)/X(q)  e(spline) 
   0      8    10.603    19.460    0.37E-03    0.59E-03    0.23E-06
   0      8    10.603    12.209    0.35E-03    0.56E-03    0.22E-06
   1      7    10.603     4.655    0.70E-04    0.28E-03    0.29E-06
 Optimization of the real space projectors (new method)

 maximal supplied QI-value         = 25.13
 optimisation between [QCUT,QGAM] = [ 10.81, 21.61] = [ 32.71,130.83] Ry 
 Optimized for a Real-space Cutoff    1.23 Angstroem

   l    n(q)    QCUT    max X(q) W(low)/X(q) W(high)/X(q)  e(spline) 
   0      8    10.807   115.676    0.36E-03    0.72E-03    0.24E-06
   0      8    10.807    87.132    0.35E-03    0.71E-03    0.24E-06
   1      7    10.807     4.429    0.19E-03    0.39E-03    0.11E-06
   1      7    10.807     2.733    0.14E-03    0.28E-03    0.13E-06
  PAW_PBE Pt 04Feb2005                  :
 energy of atom  1       EATOM= -729.1176
 kinetic energy error for atom=    0.0051 (will be added to EATOM!!)
  PAW_PBE H 15Jun2001                   :
 energy of atom  2       EATOM=  -12.4884
 kinetic energy error for atom=    0.0045 (will be added to EATOM!!)
  PAW_PBE C 08Apr2002                   :
 energy of atom  3       EATOM= -147.1560
 kinetic energy error for atom=    0.0116 (will be added to EATOM!!)
 
 
 POSCAR: Pt  H  C                                
  positions in direct lattice
  velocities in cartesian coordinates
 exchange correlation table for  LEXCH =        8
   RHO(1)=    0.500       N(1)  =     2000
   RHO(2)=  100.500       N(2)  =     4000
 


--------------------------------------------------------------------------------------------------------


 ion  position               nearest neighbor table
   1  0.000  0.000  0.000-   2 2.81  57 2.81 101 2.81 156 2.81 102 2.81  56 2.81 114 2.81  68 2.81
                            13 2.81
   2  0.083  0.083  0.000- 102 2.81   1 2.81  57 2.81   7 2.81  13 2.81  14 2.81  15 2.81   4 2.81
                             3 2.81
   3  0.167  0.167  0.000-  10 2.81   5 2.81  17 2.81   8 2.81   4 2.81  19 2.81  15 2.81   7 2.81
                             2 2.81
   4  0.250  0.000  0.000-   5 2.81  60 2.81  16 2.81  59 2.81   3 2.81  15 2.81  71 2.81  57 2.81
                             2 2.81
   5  0.333  0.083  0.000-   3 2.81   4 2.81  97 2.81   6 2.81  60 2.81  10 2.81  18 2.81  16 2.81
                            17 2.81
   6  0.417  0.167  0.000- 103 2.81  98 2.81   5 2.81  10 2.81  11 2.81  97 2.81  22 2.81  18 2.81
                           110 2.81
   7  1.000  0.250  0.000- 102 2.81 107 2.81   2 2.81 108 2.81  14 2.81 120 2.81  19 2.81   8 2.81
                             3 2.81
   8  0.083  0.333  0.000-  49 2.81  10 2.81   9 2.81  21 2.81   3 2.81  19 2.81  20 2.81   7 2.81
                           108 2.81
   9  0.167  0.417  0.000-  50 2.81  49 2.81  52 2.81  11 2.81   8 2.81  61 2.81  10 2.81  23 2.81
                            21 2.81
  10  0.250  0.250  0.000-   3 2.81   8 2.81  11 2.81   6 2.81   9 2.81   5 2.81  22 2.81  21 2.81
                            17 2.81
  11  0.333  0.333  0.000-  52 2.81   9 2.81  10 2.81 103 2.81  12 2.81   6 2.81  22 2.81  23 2.81
                            24 2.81
  12  0.417  0.417  0.000-  53 2.81  52 2.81  64 2.81  11 2.81 103 2.81 145 2.81  24 2.81 116 2.81
                           104 2.81
  13  0.083  0.000  0.115-  26 2.77  81 2.77  25 2.77  68 2.81  71 2.81  15 2.81 114 2.81  69 2.81
                            14 2.81  57 2.81   2 2.81   1 2.81
  14  0.000  0.167  0.115-  25 2.77  27 2.77 131 2.77  15 2.81 118 2.81  19 2.81 114 2.81 120 2.81
                            13 2.81   7 2.81   2 2.81 102 2.81
  15  0.167  0.083  0.115-  26 2.77  28 2.77  27 2.78  14 2.81  16 2.81  13 2.81  17 2.81  71 2.81
                            19 2.81   2 2.81   4 2.81   3 2.81
  16  0.333  0.000  0.115-  84 2.76  28 2.78  29 2.78  71 2.81  15 2.81   4 2.81  72 2.81  17 2.81
                            60 2.81   5 2.81  18 2.81 164 2.81
  17  0.250  0.167  0.115-  28 2.77  30 2.77  32 2.77  19 2.81  15 2.81   3 2.81  21 2.81  16 2.81
                            10 2.81   5 2.81  18 2.81  22 2.81
  18  0.417  0.083  0.115-  29 2.77  30 2.77 121 2.77 109 2.81 110 2.81 164 2.81  22 2.81  97 2.81
                             6 2.81   5 2.81  17 2.81  16 2.81
  19  0.083  0.250  0.115-  32 2.77  27 2.77  31 2.78  14 2.81  17 2.81  21 2.81 120 2.81  20 2.81
                            15 2.81   7 2.81   8 2.81   3 2.81
  20  1.000  0.417  0.115-  33 2.77  31 2.77 173 2.77 162 2.81  61 2.81 160 2.81  21 2.81 120 2.81
                            49 2.81  19 2.81 108 2.81   8 2.81
  21  0.167  0.333  0.115-  34 2.76  32 2.77  33 2.77  61 2.81  20 2.81  19 2.81   8 2.81  17 2.81
                            10 2.81   9 2.81  22 2.81  23 2.81
  22  0.333  0.250  0.115-  35 2.77  34 2.77  30 2.77  24 2.81 110 2.81  23 2.81  18 2.81  11 2.81
                             6 2.81  10 2.81  17 2.81  21 2.81
  23  0.250  0.417  0.115-  36 2.77  34 2.77  74 2.78  63 2.81  64 2.81  52 2.81  24 2.81  22 2.81
                            61 2.81  11 2.81   9 2.81  21 2.81
  24  0.417  0.333  0.115-  35 2.77 127 2.77  36 2.77  64 2.81 116 2.81  22 2.81 115 2.81  23 2.81
                           110 2.81 103 2.81  12 2.81  11 2.81
  25  1.000  0.083  0.227-  14 2.77 114 2.77  13 2.77  27 2.80 131 2.80 126 2.80  26 2.80 138 2.81
                           125 2.81  38 2.81  37 2.81  81 2.81
  26  0.167  0.000  0.227-  15 2.77  13 2.77  71 2.77  93 2.80  27 2.80  82 2.80  40 2.80  25 2.80
                            28 2.81  84 2.81  38 2.81  81 2.81
  27  0.083  0.167  0.227-  14 2.77  19 2.77  15 2.78 131 2.80  26 2.80  25 2.80  32 2.80  38 2.81
                            43 2.81  31 2.81  28 2.81  39 2.81
  28  0.250  0.084  0.227-  17 2.77  15 2.77  16 2.78  84 2.80  32 2.80  40 2.80  30 2.80  39 2.80
                            41 2.81  27 2.81  26 2.81  29 2.81
  29  0.417  0.001  0.227-  18 2.77 164 2.78  16 2.78  30 2.80 121 2.80 175 2.80  84 2.80 133 2.80
                            41 2.80  96 2.81 177 2.81  28 2.81
  30  0.333  0.167  0.227-  22 2.77  17 2.77  18 2.77  29 2.80  42 2.80  46 2.80  34 2.80  28 2.80
                            35 2.81  41 2.81  32 2.81 121 2.81
  31  1.000  0.333  0.227- 120 2.77  20 2.77  19 2.78 132 2.80  32 2.80  33 2.80 131 2.80 173 2.81
                           144 2.81  27 2.81  44 2.81  43 2.81
  32  0.166  0.250  0.227-  19 2.77  21 2.77  17 2.77  28 2.80  31 2.80  34 2.80  27 2.80  46 2.80
                            33 2.80  44 2.81  39 2.81  30 2.81
  33  0.083  0.417  0.227-  20 2.77  61 2.77  21 2.77  73 2.80 173 2.80  31 2.80  45 2.80  32 2.80
                            34 2.80  85 2.81  44 2.81  74 2.81
  34  0.250  0.333  0.227-  21 2.76  23 2.77  22 2.77  47 2.79  30 2.80  32 2.80  33 2.80  74 2.81
                            45 2.81  46 2.81  36 2.81  35 2.82
  35  0.417  0.250  0.227- 110 2.76  24 2.77  22 2.77  47 2.78 127 2.80 121 2.80  30 2.81 123 2.81
                           139 2.81  36 2.81  42 2.81  34 2.82
  36  0.333  0.417  0.227-  64 2.77  23 2.77  24 2.77  47 2.79  76 2.80  48 2.80  74 2.80  77 2.81
                            34 2.81  35 2.81 127 2.81  88 2.82
  37  1.000  0.000  0.342-  93 2.80  92 2.80 125 2.80 137 2.80 138 2.81  81 2.81 192 2.81  25 2.81
                            38 2.81
  38  0.083  0.084  0.342-  93 2.80  40 2.80  43 2.80  39 2.80 138 2.80  27 2.81  25 2.81  37 2.81
                            26 2.81
  39  0.167  0.167  0.342-  40 2.80  46 2.80  38 2.80  28 2.80  43 2.81  44 2.81  27 2.81  41 2.81
                            32 2.81
  40  0.250  0.000  0.342-  95 2.79  39 2.80  41 2.80  38 2.80  26 2.80  28 2.80  96 2.81  93 2.81
                            84 2.81
  41  0.333  0.083  0.342-  96 2.80  46 2.80  42 2.80  40 2.80  29 2.80  28 2.81  39 2.81  30 2.81
                           133 2.81
  42  0.417  0.166  0.341-  47 2.80 133 2.80  41 2.80 121 2.80  30 2.80 134 2.80 139 2.81  46 2.81
                            35 2.81
  43  1.000  0.250  0.342- 143 2.80  38 2.80 138 2.81  27 2.81 131 2.81  39 2.81  44 2.81  31 2.81
                           144 2.81
  44  0.083  0.333  0.342-  45 2.80  85 2.80  46 2.81 144 2.81  32 2.81  39 2.81  43 2.81  31 2.81
                            33 2.81
  45  0.166  0.417  0.341-  74 2.80  44 2.80  85 2.80  33 2.80  46 2.81  34 2.81  86 2.81  88 2.81
                            47 2.82
  46  0.250  0.250  0.342-  47 2.80  39 2.80  41 2.80  30 2.80  32 2.80  44 2.81  45 2.81  34 2.81
                            42 2.81
  47  0.334  0.332  0.340-  35 2.78  34 2.79  36 2.79  42 2.80  46 2.80 139 2.80  45 2.82  48 2.82
                            88 2.82
  48  0.417  0.416  0.341- 127 2.79 181 2.80 140 2.80 139 2.80  36 2.80  77 2.80  89 2.81  88 2.82
                            47 2.82
  49  0.000  0.500  0.000-   8 2.81   9 2.81  50 2.81  61 2.81  20 2.81 150 2.81 108 2.81 162 2.81
                           149 2.81
  50  0.083  0.583  0.000-   9 2.81 150 2.81  52 2.81  49 2.81  51 2.81  55 2.81  63 2.81  61 2.81
                            62 2.81
  51  0.167  0.667  0.000-  58 2.81  53 2.81  55 2.81  50 2.81  56 2.81  52 2.81  67 2.81  63 2.81
                            65 2.81
  52  0.250  0.500  0.000-  11 2.81   9 2.81  12 2.81  23 2.81  50 2.81  53 2.81  51 2.81  63 2.81
                            64 2.81
  53  0.333  0.583  0.000-  12 2.81  51 2.81  52 2.81  58 2.81  64 2.81  65 2.81  66 2.81 145 2.81
                            54 2.81
  54  0.417  0.667  0.000- 151 2.81 146 2.81 158 2.81  59 2.81 145 2.81  70 2.81  66 2.81  58 2.81
                            53 2.81
  55  0.000  0.750  0.000- 150 2.81  56 2.81 155 2.81  51 2.81  50 2.81 156 2.81  67 2.81  62 2.81
                           168 2.81
  56  0.083  0.833  0.000- 156 2.81  58 2.81  55 2.81  57 2.81  51 2.81   1 2.81  67 2.81  68 2.81
                            69 2.81
  57  0.167  0.917  0.000-   1 2.81  56 2.81   2 2.81  58 2.81  13 2.81  69 2.81  71 2.81  59 2.81
                             4 2.81
  58  0.250  0.750  0.000-  51 2.81  56 2.81  53 2.81  57 2.81  65 2.81  69 2.81  70 2.81  59 2.81
                            54 2.81
  59  0.333  0.833  0.000- 151 2.81  60 2.81  72 2.81  54 2.81   4 2.81  70 2.81  71 2.81  57 2.81
                            58 2.81
  60  0.417  0.917  0.000- 152 2.81  97 2.81   4 2.81  59 2.81   5 2.81 151 2.81 164 2.81  16 2.81
                            72 2.81
  61  0.083  0.500  0.115-  33 2.77  73 2.77  74 2.78  21 2.81  20 2.81 162 2.81  49 2.81   9 2.81
                            62 2.81  23 2.81  50 2.81  63 2.81
  62  1.000  0.667  0.115-  75 2.77  73 2.77 179 2.78 166 2.81 162 2.81 150 2.81 168 2.81  61 2.81
                            55 2.81  50 2.81  63 2.81  67 2.81
  63  0.167  0.583  0.115-  76 2.77  75 2.78  74 2.78  23 2.81  64 2.81  65 2.81  67 2.81  52 2.81
                            51 2.81  50 2.81  62 2.81  61 2.81
  64  0.333  0.500  0.115-  36 2.77  77 2.77  76 2.78  24 2.81  23 2.81 116 2.81  12 2.81  66 2.81
                            63 2.81  65 2.81  53 2.81  52 2.81
  65  0.250  0.667  0.115-  78 2.75  80 2.77  76 2.78  66 2.81  70 2.81  67 2.81  63 2.81  69 2.81
                            64 2.81  58 2.81  53 2.81  51 2.81
  66  0.417  0.583  0.115- 169 2.76  78 2.77  77 2.77 116 2.81  65 2.81 157 2.81  64 2.81 158 2.81
                            70 2.81  53 2.81 145 2.81  54 2.81
  67  0.083  0.750  0.115-  80 2.76  79 2.78  75 2.78  69 2.81  65 2.81  63 2.81  68 2.81  56 2.81
                            51 2.81  55 2.81  62 2.81 168 2.81
  68  0.000  0.917  0.115-  81 2.77  79 2.77 125 2.77  13 2.81  69 2.81 114 2.81  67 2.81   1 2.81
                            56 2.81 156 2.81 112 2.81 168 2.81
  69  0.167  0.833  0.115-  82 2.76  80 2.77  81 2.77  71 2.81  67 2.81  70 2.81  68 2.81  65 2.81
                            13 2.81  58 2.81  57 2.81  56 2.81
  70  0.333  0.750  0.115-  83 2.76  78 2.76  82 2.77  65 2.81  69 2.81  72 2.81 158 2.81  71 2.81
                            66 2.81  58 2.81  59 2.81  54 2.81
  71  0.250  0.917  0.115-  82 2.76  84 2.77  26 2.77  69 2.81  13 2.81  16 2.81  72 2.81  15 2.81
                            70 2.81  57 2.81   4 2.81  59 2.81
  72  0.417  0.833  0.115-  83 2.75  84 2.77 175 2.77  70 2.81  71 2.81  59 2.81 158 2.81  16 2.81
                           151 2.81  60 2.81 164 2.81 163 2.81
  73  1.000  0.583  0.227- 162 2.77  61 2.77  62 2.77  75 2.80  33 2.80 173 2.80  85 2.81 174 2.81
                            74 2.81 186 2.81 179 2.81  86 2.81
  74  0.167  0.500  0.227-  23 2.78  61 2.78  63 2.78  76 2.80  45 2.80  36 2.80  75 2.80  34 2.81
                            86 2.81  73 2.81  33 2.81  88 2.82
  75  0.083  0.667  0.227-  62 2.77  63 2.78  67 2.78  73 2.80  80 2.80 179 2.80  91 2.80  76 2.80
                            74 2.80  86 2.80  87 2.81  79 2.81
  76  0.250  0.583  0.227-  63 2.77  64 2.78  65 2.78  74 2.80  36 2.80  89 2.80  75 2.80  78 2.81
                            80 2.81  87 2.81  77 2.81  88 2.82
  77  0.417  0.500  0.227-  66 2.77  64 2.77 116 2.77  48 2.80 181 2.80 169 2.80  78 2.81  89 2.81
                            36 2.81 129 2.81  76 2.81 127 2.81
  78  0.333  0.667  0.226-  65 2.75  70 2.76  66 2.77  90 2.78  94 2.80  77 2.81  76 2.81  80 2.81
                            82 2.81  89 2.81 169 2.82  83 2.82
  79  1.000  0.833  0.227- 168 2.77  68 2.77  67 2.78  80 2.80 180 2.80 179 2.80  92 2.80 192 2.81
                            91 2.81 125 2.81  81 2.81  75 2.81
  80  0.166  0.750  0.227-  67 2.76  65 2.77  69 2.77  94 2.79  79 2.80  75 2.80  78 2.81  76 2.81
                            81 2.81  87 2.81  92 2.81  82 2.82
  81  0.083  0.917  0.227-  68 2.77  13 2.77  69 2.77 125 2.80  93 2.80  82 2.80  92 2.81  37 2.81
                            25 2.81  79 2.81  80 2.81  26 2.81
  82  0.250  0.834  0.227-  71 2.76  69 2.76  70 2.77  94 2.79  95 2.79  81 2.80  26 2.80  83 2.81
                            78 2.81  93 2.81  84 2.82  80 2.82
  83  0.417  0.751  0.226-  72 2.75  70 2.76 158 2.76  90 2.77 187 2.81  84 2.81 175 2.81  82 2.81
                           171 2.81  95 2.81 169 2.82  78 2.82
  84  0.333  0.917  0.227-  16 2.76  71 2.77  72 2.77  95 2.79  28 2.80  29 2.80  26 2.81  83 2.81
                           175 2.81  96 2.81  40 2.81  82 2.82
  85  0.000  0.500  0.342-  45 2.80 185 2.80  86 2.80  44 2.80  73 2.81 186 2.81 144 2.81  33 2.81
                           173 2.81
  86  0.083  0.583  0.342- 186 2.80  85 2.80  75 2.80  91 2.80  87 2.81  74 2.81  73 2.81  45 2.81
                            88 2.81
  87  0.166  0.667  0.342-  94 2.80  91 2.80  92 2.80  86 2.81  89 2.81  75 2.81  80 2.81  76 2.81
                            88 2.81
  88  0.250  0.500  0.343-  89 2.80  86 2.81  45 2.81  87 2.81  48 2.82  74 2.82  76 2.82  36 2.82
                            47 2.82
  89  0.333  0.583  0.341-  88 2.80  76 2.80  77 2.81  87 2.81 181 2.81  48 2.81  78 2.81  94 2.82
                            90 2.83
  90  0.416  0.668  0.338-  83 2.77 169 2.77  78 2.78 187 2.80  95 2.81 182 2.82  94 2.82  89 2.83
                           181 2.84
  91  1.000  0.750  0.342-  87 2.80 186 2.80 191 2.80  75 2.80  92 2.80  86 2.80  79 2.81 179 2.81
                           192 2.81
  92  0.083  0.834  0.342-  94 2.79 192 2.80  87 2.80  37 2.80  91 2.80  79 2.80  81 2.81  93 2.81
                            80 2.81
  93  0.166  0.917  0.341-  95 2.80  37 2.80  94 2.80  38 2.80  26 2.80  81 2.80  40 2.81  92 2.81
                            82 2.81
  94  0.249  0.751  0.340-  80 2.79  92 2.79  82 2.79  93 2.80  87 2.80  78 2.80  95 2.82  89 2.82
                            90 2.82
  95  0.332  0.835  0.340-  40 2.79  84 2.79  82 2.79  93 2.80  96 2.80  90 2.81  83 2.81 187 2.82
                            94 2.82
  96  0.416  0.917  0.342- 187 2.80  41 2.80 133 2.80  95 2.80 188 2.81  29 2.81  40 2.81  84 2.81
                           175 2.81
  97  0.500  0.000  0.000-   5 2.81  60 2.81  98 2.81 153 2.81 152 2.81   6 2.81  18 2.81 164 2.81
                           109 2.81
  98  0.583  0.083  0.000-   6 2.81  97 2.81 153 2.81 103 2.81 109 2.81 110 2.81 111 2.81 100 2.81
                            99 2.81
  99  0.667  0.167  0.000- 106 2.81 101 2.81 113 2.81 104 2.81 100 2.81 115 2.81 111 2.81 103 2.81
                            98 2.81
 100  0.750  0.000  0.000- 101 2.81 156 2.81 112 2.81 155 2.81  99 2.81 111 2.81 167 2.81 153 2.81
                            98 2.81
 101  0.833  0.083  0.000-  99 2.81   1 2.81 100 2.81 102 2.81 156 2.81 106 2.81 114 2.81 112 2.81
                           113 2.81
 102  0.917  0.167  0.000-   2 2.81   7 2.81 101 2.81 106 2.81 107 2.81   1 2.81 118 2.81 114 2.81
                            14 2.81
 103  0.500  0.250  0.000-   6 2.81  11 2.81  12 2.81  98 2.81  24 2.81 110 2.81 115 2.81 104 2.81
                            99 2.81
 104  0.583  0.333  0.000- 145 2.81 106 2.81 105 2.81 117 2.81  99 2.81 115 2.81 116 2.81  12 2.81
                           103 2.81
 105  0.667  0.417  0.000- 146 2.81 145 2.81 148 2.81 107 2.81 104 2.81 157 2.81 106 2.81 119 2.81
                           117 2.81
 106  0.750  0.250  0.000-  99 2.81 104 2.81 107 2.81 102 2.81 105 2.81 101 2.81 118 2.81 117 2.81
                           113 2.81
 107  0.833  0.333  0.000- 148 2.81 105 2.81 106 2.81 108 2.81   7 2.81 102 2.81 118 2.81 119 2.81
                           120 2.81
 108  0.917  0.417  0.000- 149 2.81 148 2.81 160 2.81 107 2.81   7 2.81  49 2.81 120 2.81  20 2.81
                             8 2.81
 109  0.583  0.000  0.115- 121 2.77 177 2.77 122 2.78 111 2.81 164 2.81 167 2.81  18 2.81 110 2.81
                           165 2.81  98 2.81 153 2.81  97 2.81
 110  0.500  0.167  0.115-  35 2.76 121 2.77 123 2.77 111 2.81  22 2.81 115 2.81  18 2.81  24 2.81
                           109 2.81 103 2.81  98 2.81   6 2.81
 111  0.667  0.083  0.115- 123 2.77 122 2.78 124 2.78 110 2.81 112 2.81 109 2.81 113 2.81 167 2.81
                           115 2.81  98 2.81 100 2.81  99 2.81
 112  0.833  0.000  0.115- 124 2.77 125 2.77 180 2.77 167 2.81 111 2.81 100 2.81 168 2.81 113 2.81
                           156 2.81 101 2.81  68 2.81 114 2.81
 113  0.750  0.167  0.115- 128 2.77 124 2.77 126 2.77 115 2.81 111 2.81  99 2.81 117 2.81 112 2.81
                           106 2.81 101 2.81 114 2.81 118 2.81
 114  0.917  0.083  0.115- 125 2.77  25 2.77 126 2.77  13 2.81  14 2.81  68 2.81 118 2.81   1 2.81
                           102 2.81 101 2.81 113 2.81 112 2.81
 115  0.583  0.250  0.115- 127 2.77 123 2.77 128 2.77 117 2.81  24 2.81 110 2.81 113 2.81 111 2.81
                           116 2.81 103 2.81 104 2.81  99 2.81
 116  0.500  0.417  0.115-  77 2.77 127 2.77 129 2.78  66 2.81  64 2.81 157 2.81  24 2.81 117 2.81
                           145 2.81 115 2.81  12 2.81 104 2.81
 117  0.667  0.333  0.115- 129 2.77 130 2.77 128 2.78 157 2.81 115 2.81 116 2.81 104 2.81 113 2.81
                           106 2.81 105 2.81 118 2.81 119 2.81
 118  0.833  0.250  0.115- 130 2.77 131 2.77 126 2.77 120 2.81  14 2.81 114 2.81 119 2.81 107 2.81
                           102 2.81 106 2.81 117 2.81 113 2.81
 119  0.750  0.417  0.115- 170 2.76 132 2.77 130 2.78 159 2.81 160 2.81 148 2.81 120 2.81 118 2.81
                           157 2.81 107 2.81 105 2.81 117 2.81
 120  0.917  0.333  0.115- 132 2.77  31 2.77 131 2.77 160 2.81 118 2.81  19 2.81 119 2.81  20 2.81
                            14 2.81   7 2.81 108 2.81 107 2.81
 121  0.500  0.083  0.227- 109 2.77 110 2.77  18 2.77  29 2.80  42 2.80 177 2.80 123 2.80 122 2.80
                            35 2.80 134 2.81 133 2.81  30 2.81
 122  0.667  1.000  0.227- 167 2.77 111 2.78 109 2.78 180 2.80 177 2.80 123 2.80 121 2.80 178 2.80
                           136 2.80 134 2.81 124 2.81 189 2.81
 123  0.584  0.166  0.227- 111 2.77 115 2.77 110 2.77 122 2.80 121 2.80 124 2.80 128 2.80 139 2.80
                           134 2.81 135 2.81  35 2.81 127 2.81
 124  0.750  0.083  0.227- 112 2.77 113 2.77 111 2.78 125 2.80 123 2.80 180 2.80 128 2.80 126 2.80
                           136 2.81 122 2.81 137 2.81 135 2.81
 125  0.917  0.000  0.227- 114 2.77 112 2.77  68 2.77 124 2.80  81 2.80 126 2.80  37 2.80  25 2.81
                           192 2.81  79 2.81 137 2.81 180 2.81
 126  0.833  0.167  0.227- 114 2.77 118 2.77 113 2.77 130 2.80 128 2.80 125 2.80 138 2.80  25 2.80
                           124 2.80 137 2.81 131 2.81 142 2.81
 127  0.500  0.333  0.227- 115 2.77 116 2.77  24 2.77  48 2.79 128 2.80 129 2.80  35 2.80 123 2.81
                           139 2.81 140 2.81  77 2.81  36 2.81
 128  0.667  0.250  0.227- 113 2.77 115 2.77 117 2.78 126 2.80 127 2.80 124 2.80 123 2.80 135 2.80
                           129 2.81 142 2.81 130 2.81 140 2.81
 129  0.584  0.416  0.227- 117 2.77 116 2.78 157 2.78 181 2.80 127 2.80 170 2.81 128 2.81 130 2.81
                           169 2.81 141 2.81 140 2.81  77 2.81
 130  0.750  0.333  0.227- 118 2.77 117 2.77 119 2.78 170 2.80 126 2.80 131 2.80 142 2.80 143 2.81
                           129 2.81 128 2.81 132 2.81 141 2.81
 131  0.917  0.250  0.227- 120 2.77  14 2.77 118 2.77  27 2.80 130 2.80  25 2.80  31 2.80 132 2.81
                           138 2.81  43 2.81 126 2.81 143 2.81
 132  0.833  0.417  0.227- 120 2.77 160 2.77 119 2.77 170 2.80  31 2.80 184 2.80 173 2.80 131 2.81
                           144 2.81 130 2.81 143 2.81 172 2.81
 133  0.500  0.000  0.342- 188 2.80  42 2.80  96 2.80  29 2.80 134 2.80 189 2.81 121 2.81  41 2.81
                           177 2.81
 134  0.583  0.083  0.342- 139 2.80  42 2.80 136 2.80 133 2.80 189 2.80 123 2.81 135 2.81 121 2.81
                           122 2.81
 135  0.667  0.167  0.342- 140 2.80 139 2.80 136 2.80 137 2.80 128 2.80 134 2.81 123 2.81 142 2.81
                           124 2.81
 136  0.750  0.000  0.342- 192 2.80 135 2.80 122 2.80 134 2.80 180 2.81 191 2.81 124 2.81 137 2.81
                           189 2.81
 137  0.833  0.083  0.342- 135 2.80  37 2.80 142 2.80 138 2.81 126 2.81 124 2.81 136 2.81 192 2.81
                           125 2.81
 138  0.917  0.167  0.342- 126 2.80 143 2.80  38 2.80  43 2.81 131 2.81 137 2.81 142 2.81  25 2.81
                            37 2.81
 139  0.500  0.250  0.341-  48 2.80 135 2.80 134 2.80  47 2.80 140 2.80 123 2.80 127 2.81  42 2.81
                            35 2.81
 140  0.584  0.333  0.342-  48 2.80 142 2.80 135 2.80 139 2.80 181 2.80 141 2.81 128 2.81 129 2.81
                           127 2.81
 141  0.667  0.416  0.342- 182 2.80 142 2.80 143 2.80 184 2.80 140 2.81 129 2.81 181 2.81 130 2.81
                           170 2.81
 142  0.750  0.250  0.342- 140 2.80 141 2.80 137 2.80 130 2.80 138 2.81 128 2.81 143 2.81 135 2.81
                           126 2.81
 143  0.833  0.333  0.342- 184 2.80 141 2.80  43 2.80 138 2.80 130 2.81 142 2.81 144 2.81 131 2.81
                           132 2.81
 144  0.917  0.417  0.342- 184 2.80 185 2.80  44 2.81  31 2.81  85 2.81  43 2.81 143 2.81 132 2.81
                           173 2.81
 145  0.500  0.500  0.000- 104 2.81 105 2.81 146 2.81 157 2.81 116 2.81  54 2.81  12 2.81  66 2.81
                            53 2.81
 146  0.583  0.583  0.000- 105 2.81  54 2.81 145 2.81 148 2.81 147 2.81 151 2.81 159 2.81 157 2.81
                           158 2.81
 147  0.667  0.667  0.000- 154 2.81 149 2.81 151 2.81 146 2.81 152 2.81 148 2.81 163 2.81 159 2.81
                           161 2.81
 148  0.750  0.500  0.000- 107 2.81 105 2.81 108 2.81 119 2.81 146 2.81 149 2.81 147 2.81 159 2.81
                           160 2.81
 149  0.833  0.583  0.000- 108 2.81 147 2.81 148 2.81 154 2.81 160 2.81 161 2.81 162 2.81  49 2.81
                           150 2.81
 150  0.917  0.667  0.000-  55 2.81  50 2.81  62 2.81 155 2.81  49 2.81 166 2.81 162 2.81 154 2.81
                           149 2.81
 151  0.500  0.750  0.000-  54 2.81  59 2.81 152 2.81 147 2.81  60 2.81 146 2.81 163 2.81 158 2.81
                            72 2.81
 152  0.583  0.833  0.000-  60 2.81 151 2.81 154 2.81 153 2.81 147 2.81  97 2.81 163 2.81 164 2.81
                           165 2.81
 153  0.667  0.917  0.000-  97 2.81 152 2.81  98 2.81 154 2.81 109 2.81 165 2.81 167 2.81 155 2.81
                           100 2.81
 154  0.750  0.750  0.000- 147 2.81 152 2.81 149 2.81 153 2.81 161 2.81 165 2.81 166 2.81 155 2.81
                           150 2.81
 155  0.833  0.833  0.000-  55 2.81 156 2.81 168 2.81 150 2.81 100 2.81 166 2.81 167 2.81 153 2.81
                           154 2.81
 156  0.917  0.917  0.000-  56 2.81   1 2.81 100 2.81 155 2.81 101 2.81  55 2.81  68 2.81 112 2.81
                           168 2.81
 157  0.583  0.500  0.115- 169 2.76 170 2.77 129 2.78 117 2.81 116 2.81  66 2.81 145 2.81 105 2.81
                           158 2.81 119 2.81 146 2.81 159 2.81
 158  0.500  0.667  0.115-  83 2.76 169 2.76 171 2.77  70 2.81  66 2.81  54 2.81  72 2.81 157 2.81
                           151 2.81 146 2.81 159 2.81 163 2.81
 159  0.667  0.583  0.115- 171 2.77 170 2.77 172 2.78 119 2.81 160 2.81 161 2.81 163 2.81 148 2.81
                           147 2.81 146 2.81 158 2.81 157 2.81
 160  0.833  0.500  0.115- 132 2.77 173 2.77 172 2.78 120 2.81 119 2.81  20 2.81 108 2.81 159 2.81
                           162 2.81 161 2.81 149 2.81 148 2.81
 161  0.750  0.667  0.115- 174 2.77 176 2.78 172 2.78 162 2.81 166 2.81 163 2.81 159 2.81 165 2.81
                           160 2.81 154 2.81 149 2.81 147 2.81
 162  0.917  0.583  0.115- 173 2.77  73 2.77 174 2.77  20 2.81 161 2.81 160 2.81  61 2.81  62 2.81
                           166 2.81 149 2.81  49 2.81 150 2.81
 163  0.583  0.750  0.115- 171 2.77 175 2.77 176 2.78 165 2.81 161 2.81 159 2.81 164 2.81 152 2.81
                           147 2.81 151 2.81 158 2.81  72 2.81
 164  0.500  0.917  0.115- 175 2.76 177 2.77  29 2.78 109 2.81 165 2.81  18 2.81 163 2.81  97 2.81
                           152 2.81  60 2.81  72 2.81  16 2.81
 165  0.667  0.833  0.115- 177 2.77 178 2.77 176 2.78 167 2.81 163 2.81 166 2.81 164 2.81 161 2.81
                           109 2.81 154 2.81 153 2.81 152 2.81
 166  0.833  0.750  0.115- 178 2.77 179 2.77 174 2.77 168 2.81  62 2.81 161 2.81 165 2.81 162 2.81
                           167 2.81 154 2.81 155 2.81 150 2.81
 167  0.750  0.917  0.115- 122 2.77 178 2.77 180 2.77 165 2.81 109 2.81 112 2.81 168 2.81 111 2.81
                           166 2.81 153 2.81 100 2.81 155 2.81
 168  0.917  0.833  0.115-  79 2.77 180 2.77 179 2.78 166 2.81 167 2.81 155 2.81  62 2.81 112 2.81
                            55 2.81 156 2.81  67 2.81  68 2.81
 169  0.500  0.583  0.226- 157 2.76  66 2.76 158 2.76  90 2.77 182 2.80  77 2.80 129 2.81 171 2.81
                           170 2.81 181 2.82  78 2.82  83 2.82
 170  0.667  0.499  0.227- 119 2.76 157 2.77 159 2.77 182 2.79 132 2.80 130 2.80 129 2.81 172 2.81
                           184 2.81 141 2.81 169 2.81 171 2.81
 171  0.584  0.667  0.227- 159 2.77 163 2.77 158 2.77 172 2.80 176 2.80 182 2.80 187 2.80 169 2.81
                            83 2.81 170 2.81 175 2.82 183 2.82
 172  0.750  0.583  0.227- 159 2.78 161 2.78 160 2.78 171 2.80 176 2.80 185 2.81 184 2.81 174 2.81
                           170 2.81 173 2.81 132 2.81 183 2.81
 173  0.917  0.500  0.227- 162 2.77 160 2.77  20 2.77  33 2.80 185 2.80  73 2.80 174 2.80 132 2.80
                            31 2.81 144 2.81 172 2.81  85 2.81
 174  0.833  0.667  0.227- 161 2.77 166 2.77 162 2.77 190 2.80 185 2.80 179 2.80 173 2.80 178 2.81
                           176 2.81  73 2.81 172 2.81 186 2.81
 175  0.500  0.834  0.227- 164 2.76 163 2.77  72 2.77 187 2.79 177 2.80  29 2.80 176 2.81  84 2.81
                           188 2.81  83 2.81  96 2.81 171 2.82
 176  0.667  0.750  0.227- 163 2.78 161 2.78 165 2.78 171 2.80 172 2.80 174 2.81 175 2.81 190 2.81
                           188 2.81 178 2.81 177 2.81 183 2.81
 177  0.584  0.917  0.227- 109 2.77 165 2.77 164 2.77 175 2.80 178 2.80 122 2.80 121 2.80 188 2.80
                           189 2.81  29 2.81 133 2.81 176 2.81
 178  0.750  0.833  0.227- 165 2.77 166 2.77 167 2.77 177 2.80 190 2.80 179 2.80 122 2.80 174 2.81
                           180 2.81 176 2.81 189 2.81 191 2.81
 179  0.917  0.750  0.227- 166 2.77 168 2.78  62 2.78  75 2.80 178 2.80 174 2.80  79 2.80 186 2.81
                           191 2.81  91 2.81 180 2.81  73 2.81
 180  0.833  0.917  0.227- 167 2.77 112 2.77 168 2.77 122 2.80  79 2.80 124 2.80 192 2.80 136 2.81
                           191 2.81 179 2.81 178 2.81 125 2.81
 181  0.500  0.500  0.341-  48 2.80 129 2.80  77 2.80 140 2.80 141 2.81 182 2.81  89 2.81 169 2.82
                            90 2.84
 182  0.584  0.583  0.341- 170 2.79 141 2.80 171 2.80 184 2.80 169 2.80 183 2.81 181 2.81  90 2.82
                           187 2.83
 183  0.667  0.667  0.342- 193 2.10 182 2.81 187 2.81 172 2.81 185 2.81 176 2.81 184 2.81 190 2.81
                           188 2.82 171 2.82
 184  0.750  0.499  0.342- 143 2.80 144 2.80 182 2.80 141 2.80 132 2.80 172 2.81 170 2.81 185 2.81
                           183 2.81
 185  0.834  0.583  0.342-  85 2.80 186 2.80 144 2.80 173 2.80 174 2.80 172 2.81 190 2.81 184 2.81
                           183 2.81
 186  0.917  0.667  0.342-  86 2.80 190 2.80 185 2.80  91 2.80 179 2.81  85 2.81 174 2.81  73 2.81
                           191 2.81
 187  0.500  0.751  0.340- 175 2.79  96 2.80  90 2.80 171 2.80 188 2.80  83 2.81 183 2.81  95 2.82
                           182 2.83
 188  0.583  0.834  0.342- 133 2.80 189 2.80 187 2.80 177 2.80  96 2.81 176 2.81 175 2.81 190 2.81
                           183 2.82
 189  0.667  0.917  0.342- 188 2.80 190 2.80 134 2.80 191 2.81 122 2.81 133 2.81 136 2.81 177 2.81
                           178 2.81
 190  0.750  0.750  0.342- 191 2.80 186 2.80 189 2.80 178 2.80 174 2.80 176 2.81 185 2.81 188 2.81
                           183 2.81
 191  0.833  0.833  0.342- 190 2.80  91 2.80 192 2.80 189 2.81 136 2.81 179 2.81 180 2.81 186 2.81
                           178 2.81
 192  0.917  0.917  0.342-  92 2.80 136 2.80 191 2.80 180 2.80  79 2.81 137 2.81  37 2.81  91 2.81
                           125 2.81
 193  0.642  0.670  0.445- 225 1.14 183 2.10
 194  0.718  0.653  0.504- 225 1.10
 195  0.658  0.608  0.589- 226 1.10
 196  0.671  0.557  0.513- 226 1.10
 197  0.517  0.685  0.499- 228 1.11
 198  0.562  0.522  0.558- 229 1.10
 199  0.574  0.541  0.473- 229 1.11
 200  0.459  0.551  0.452- 231 1.12
 201  0.405  0.578  0.598- 232 1.11
 202  0.465  0.485  0.558- 232 1.10
 203  0.343  0.555  0.466- 234 1.12
 204  0.345  0.462  0.590- 235 1.11
 205  0.404  0.423  0.518- 235 1.10
 206  0.273  0.477  0.451- 237 1.13
 207  0.370  0.334  0.474- 238 1.10
 208  0.270  0.353  0.477- 238 1.10
 209  0.324  0.340  0.552- 238 1.10
 210  0.541  0.783  0.515- 227 1.10
 211  0.621  0.798  0.491- 227 1.10
 212  0.616  0.768  0.574- 227 1.10
 213  0.541  0.629  0.645- 230 1.10
 214  0.447  0.691  0.609- 230 1.10
 215  0.515  0.726  0.617- 230 1.10
 216  0.376  0.709  0.529- 233 1.10
 217  0.337  0.676  0.465- 233 1.10
 218  0.416  0.695  0.448- 233 1.12
 219  0.252  0.610  0.599- 236 1.10
 220  0.215  0.636  0.516- 236 1.10
 221  0.272  0.675  0.551- 236 1.10
 222  0.207  0.476  0.591- 239 1.10
 223  0.160  0.481  0.513- 239 1.10
 224  0.173  0.561  0.539- 239 1.09
 225  0.654  0.674  0.501- 194 1.10 193 1.14 227 1.52 226 1.53
 226  0.636  0.615  0.537- 196 1.10 195 1.10 225 1.53 228 1.55
 227  0.605  0.760  0.522- 210 1.10 212 1.10 211 1.10 225 1.52
 228  0.547  0.639  0.538- 197 1.11 230 1.53 229 1.54 226 1.55
 229  0.537  0.568  0.518- 198 1.10 199 1.11 228 1.54 231 1.55
 230  0.510  0.674  0.606- 214 1.10 215 1.10 213 1.10 228 1.53
 231  0.452  0.584  0.500- 200 1.12 233 1.52 232 1.54 229 1.55
 232  0.418  0.547  0.549- 202 1.10 201 1.11 231 1.54 234 1.55
 233  0.392  0.670  0.485- 217 1.10 216 1.10 218 1.12 231 1.52
 234  0.342  0.550  0.522- 203 1.12 236 1.53 235 1.54 232 1.55
 235  0.346  0.470  0.536- 205 1.10 204 1.11 237 1.54 234 1.54
 236  0.266  0.622  0.548- 221 1.10 220 1.10 219 1.10 234 1.53
 237  0.282  0.455  0.504- 206 1.13 239 1.53 238 1.53 235 1.54
 238  0.313  0.366  0.502- 208 1.10 209 1.10 207 1.10 237 1.53
 239  0.201  0.496  0.539- 224 1.09 223 1.10 222 1.10 237 1.53
 
  LATTYP: Found a hexagonal cell.
 ALAT       =    19.4393438986
 C/A-ratio  =     1.0288413078
  
  Lattice vectors:
  
 A1 = (   9.7196719493, -16.8349656491,   0.0000000000)
 A2 = ( -19.4393438986,   0.0000000000,   0.0000000000)
 A3 = (   0.0000000000,   0.0000000000, -20.0000000000)


Analysis of symmetry for initial positions (statically):
=====================================================================
 Subroutine PRICEL returns:
 Original cell was already a primitive cell.
 

 Routine SETGRP: Setting up the symmetry group for a 
 hexagonal supercell.


 Subroutine GETGRP returns: Found  1 space group operations
 (whereof  1 operations were pure point group operations)
 out of a pool of 24 trial point group operations.


The static configuration has the point symmetry C_1 .


Analysis of symmetry for dynamics (positions and initial velocities):
=====================================================================
 Subroutine PRICEL returns:
 Original cell was already a primitive cell.
 

 Routine SETGRP: Setting up the symmetry group for a 
 hexagonal supercell.


 Subroutine GETGRP returns: Found  1 space group operations
 (whereof  1 operations were pure point group operations)
 out of a pool of 24 trial point group operations.


The dynamic configuration has the point symmetry C_1 .


Analysis of constrained symmetry for selective dynamics:
=====================================================================
 Subroutine PRICEL returns:
 Original cell was already a primitive cell.
 

 Routine SETGRP: Setting up the symmetry group for a 
 hexagonal supercell.


 Subroutine GETGRP returns: Found  1 space group operations
 (whereof  1 operations were pure point group operations)
 out of a pool of 24 trial point group operations.


The constrained configuration has the point symmetry C_1 .


 Subroutine INISYM returns: Found  1 space group operations
 (whereof  1 operations are pure point group operations),
 and found     1 'primitive' translations

 
 
 KPOINTS: K-POINTS                                

Automatic generation of k-mesh.
Space group operators:
 irot       det(A)        alpha          n_x          n_y          n_z        tau_x        tau_y        tau_z
    1     1.000000     0.000000     1.000000     0.000000     0.000000     0.000000     0.000000     0.000000
 
 Subroutine IBZKPT returns following result:
 ===========================================
 
 Found      5 irreducible k-points:
 
 Following reciprocal coordinates:
            Coordinates               Weight
  0.000000  0.000000  0.000000      1.000000
  0.333333 -0.000000  0.000000      2.000000
  0.000000  0.333333  0.000000      2.000000
  0.333333  0.333333  0.000000      2.000000
 -0.333333  0.333333  0.000000      2.000000
 
 Following cartesian coordinates:
            Coordinates               Weight
  0.000000  0.000000  0.000000      1.000000
  0.017147 -0.009900  0.000000      2.000000
  0.000000  0.019800  0.000000      2.000000
  0.017147  0.009900  0.000000      2.000000
 -0.017147  0.029700  0.000000      2.000000
 


--------------------------------------------------------------------------------------------------------




 Dimension of arrays:
   k-points           NKPTS =      5   k-points in BZ     NKDIM =      5   number of bands    NBANDS=   1248
   number of dos      NEDOS =    301   number of ions     NIONS =    239
   non local maximal  LDIM  =      6   non local SUM 2l+1 LMDIM =     18
   total plane-waves  NPLWV = ******
   max r-space proj   IRMAX =   2584   max aug-charges    IRDMAX=  11855
   dimension x,y,z NGX =   108 NGY =  108 NGZ =  108
   dimension x,y,z NGXF=   216 NGYF=  216 NGZF=  216
   support grid    NGXF=   216 NGYF=  216 NGZF=  216
   ions per type =             192  32  15
   NGX,Y,Z   is equivalent  to a cutoff of   9.24,  9.24,  8.98 a.u.
   NGXF,Y,Z  is equivalent  to a cutoff of  18.47, 18.47, 17.95 a.u.

 SYSTEM =  x                                       
 POSCAR =  Pt  H  C                                

 Startparameter for this run:
   NWRITE =      0    write-flag & timer
   PREC   = normal    normal or accurate (medium, high low for compatibility)
   ISTART =      0    job   : 0-new  1-cont  2-samecut
   ICHARG =      2    charge: 1-file 2-atom 10-const
   ISPIN  =      1    spin polarized calculation?
   LNONCOLLINEAR =      F non collinear calculations
   LSORBIT =      F    spin-orbit coupling
   INIWAV =      1    electr: 0-lowe 1-rand  2-diag
   LASPH  =      F    aspherical Exc in radial PAW
   METAGGA=      F    non-selfconsistent MetaGGA calc.

 Electronic Relaxation 1
   ENCUT  =  450.0 eV  33.07 Ry    5.75 a.u.  33.62 33.62 34.59*2*pi/ulx,y,z
   ENINI  =  450.0     initial cutoff
   ENAUG  =  644.9 eV  augmentation charge cutoff
   NELM   =     50;   NELMIN=  5; NELMDL= -7     # of ELM steps 
   EDIFF  = 0.1E-04   stopping-criterion for ELM
   LREAL  =      T    real-space projection
   NLSPLINE    = F    spline interpolate recip. space projectors
   LCOMPAT=      F    compatible to vasp.4.4
   GGA_COMPAT  = T    GGA compatible to vasp.4.4-vasp.4.6
   LMAXPAW     = -100 max onsite density
   LMAXMIX     =    2 max onsite mixed and CHGCAR
   VOSKOWN=      0    Vosko Wilk Nusair interpolation
   ROPT   =   -0.00050  -0.00050  -0.00050
 Ionic relaxation
   EDIFFG = -.2E-01   stopping-criterion for IOM
   NSW    =    400    number of steps for IOM
   NBLOCK =      1;   KBLOCK =    400    inner block; outer block 
   IBRION =      2    ionic relax: 0-MD 1-quasi-New 2-CG
   NFREE  =      2    steps in history (QN), initial steepest desc. (CG)
   ISIF   =      2    stress and relaxation
   IWAVPR =     11    prediction:  0-non 1-charg 2-wave 3-comb
   ISYM   =      2    0-nonsym 1-usesym 2-fastsym
   LCORR  =      T    Harris-Foulkes like correction to forces

   POTIM  = 0.1500    time-step for ionic-motion
   TEIN   =    0.0    initial temperature
   TEBEG  =    0.0;   TEEND  =   0.0 temperature during run
   SMASS  =  -3.00    Nose mass-parameter (am)
   estimated Nose-frequenzy (Omega)   =  0.10E-29 period in steps =****** mass=  -0.864E-26a.u.
   SCALEE = 1.0000    scale energy and forces
   NPACO  =    256;   APACO  = 16.0  distance and # of slots for P.C.
   PSTRESS=    0.0 pullay stress

  Mass of Ions in am
   POMASS = 195.08  1.00 12.01
  Ionic Valenz
   ZVAL   =  10.00  1.00  4.00
  Atomic Wigner-Seitz radii
   RWIGS  =  -1.00 -1.00 -1.00
  virtual crystal weights 
   VCA    =   1.00  1.00  1.00
   NELECT =    2012.0000    total number of electrons
   NUPDOWN=      -1.0000    fix difference up-down

 DOS related values:
   EMIN   =  10.00;   EMAX   =-10.00  energy-range for DOS
   EFERMI =   0.00
   ISMEAR =     0;   SIGMA  =   0.03  broadening in eV -4-tet -1-fermi 0-gaus

 Electronic relaxation 2 (details)
   IALGO  =     68    algorithm
   LDIAG  =      T    sub-space diagonalisation (order eigenvalues)
   LSUBROT=      F    optimize rotation matrix (better conditioning)
   TURBO    =      0    0=normal 1=particle mesh
   IRESTART =      0    0=no restart 2=restart with 2 vectors
   NREBOOT  =      0    no. of reboots
   NMIN     =      0    reboot dimension
   EREF     =   0.00    reference energy to select bands
   IMIX   =      4    mixing-type and parameters
     AMIX     =   0.40;   BMIX     =  1.00
     AMIX_MAG =   1.60;   BMIX_MAG =  1.00
     AMIN     =   0.10
     WC   =   100.;   INIMIX=   1;  MIXPRE=   1;  MAXMIX= -45

 Intra band minimization:
   WEIMIN = 0.0010     energy-eigenvalue tresh-hold
   EBREAK =  0.20E-08  absolut break condition
   DEPER  =   0.30     relativ break condition  

   TIME   =   0.40     timestep for ELM

  volume/ion in A,a.u.               =      27.39       184.81
  Fermi-wavevector in a.u.,A,eV,Ry     =   1.104866  2.087894 16.609020  1.220729
  Thomas-Fermi vector in A             =   2.241345
 
 Write flags
   LWAVE        =      F    write WAVECAR
   LDOWNSAMPLE  =      F    k-point downsampling of WAVECAR
   LCHARG       =      F    write CHGCAR
   LVTOT        =      F    write LOCPOT, total local potential
   LVHAR        =      F    write LOCPOT, Hartree potential only
   LELF         =      F    write electronic localiz. function (ELF)
   LORBIT       =      0    0 simple, 1 ext, 2 COOP (PROOUT), +10 PAW based schemes


 Dipole corrections
   LMONO  =      F    monopole corrections only (constant potential shift)
   LDIPOL =      T    correct potential (dipole corrections)
   IDIPOL =      3    1-x, 2-y, 3-z, 4-all directions 
   EPSILON=  1.0000000 bulk dielectric constant

 Exchange correlation treatment:
   GGA     =    PE    GGA type
   LEXCH   =     8    internal setting for exchange type
   VOSKOWN=      0    Vosko Wilk Nusair interpolation
   LHFCALC =     F    Hartree Fock is set to
   LHFONE  =     F    Hartree Fock one center treatment
   AEXX    =    0.0000 exact exchange contribution

 Linear response parameters
   LEPSILON=     F    determine dielectric tensor
   LRPA    =     F    only Hartree local field effects (RPA)
   LNABLA  =     F    use nabla operator in PAW spheres
   LVEL    =     F    velocity operator in full k-point grid
   LINTERFAST=   F  fast interpolation
   KINTER  =     0    interpolate to denser k-point grid
   CSHIFT  =0.1000    complex shift for real part using Kramers Kronig
   OMEGAMAX=  -1.0    maximum frequency
   DEG_THRESHOLD= 0.2000000E-02 threshold for treating states as degnerate
   RTIME   =   -0.100 relaxation time in fs
  (WPLASMAI=    0.000 imaginary part of plasma frequency in eV, 0.658/RTIME)
   DFIELD  = 0.0000000 0.0000000 0.0000000 field for delta impulse in time
 
 Orbital magnetization related:
   ORBITALMAG=     F  switch on orbital magnetization
   LCHIMAG   =     F  perturbation theory with respect to B field
   DQ        =  0.001000  dq finite difference perturbation B field
   LLRAUG    =     F  two centre corrections for induced B field



--------------------------------------------------------------------------------------------------------


 conjugate gradient relaxation of ions
   using selective dynamics as specified on POSCAR
 charge density and potential will be updated during run
 non-spin polarized calculation
 RMM-DIIS sequential band-by-band and
  variant of blocked Davidson during initial phase
 perform sub-space diagonalisation
    before iterative eigenvector-optimisation
 modified Broyden-mixing scheme, WC =      100.0
 initial mixing is a Kerker type mixing with AMIX =  0.4000 and BMIX =      1.0000
 Hartree-type preconditioning will be used
 using additional bands          242
 real space projection scheme for non local part
 use partial core corrections
 calculate Harris-corrections to forces 
   (improved forces if not selfconsistent)
 use gradient corrections 
 use of overlap-Matrix (Vanderbilt PP)
 Gauss-broadening in eV      SIGMA  =   0.03


--------------------------------------------------------------------------------------------------------


  energy-cutoff  :      450.00
  volume of cell :     6545.21
      direct lattice vectors                 reciprocal lattice vectors
    19.439343899  0.000000000  0.000000000     0.051442065 -0.029700090  0.000000000
     9.719671949 16.834965649  0.000000000     0.000000000  0.059400181  0.000000000
     0.000000000  0.000000000 20.000000000     0.000000000  0.000000000  0.050000000

  length of vectors
    19.439343899 19.439343899 20.000000000     0.059400181  0.059400181  0.050000000


 
 k-points in units of 2pi/SCALE and weight: K-POINTS                                
   0.00000000  0.00000000  0.00000000       0.111
   0.01714736 -0.00990003  0.00000000       0.222
   0.00000000  0.01980006  0.00000000       0.222
   0.01714736  0.00990003  0.00000000       0.222
  -0.01714736  0.02970009  0.00000000       0.222
 
 k-points in reciprocal lattice and weights: K-POINTS                                
   0.00000000  0.00000000  0.00000000       0.111
   0.33333333 -0.00000000  0.00000000       0.222
   0.00000000  0.33333333  0.00000000       0.222
   0.33333333  0.33333333  0.00000000       0.222
  -0.33333333  0.33333333  0.00000000       0.222
 
 position of ions in fractional coordinates (direct lattice) 
   0.00000000  0.00000000  0.00000000
   0.08333333  0.08333333  0.00000000
   0.16666667  0.16666667  0.00000000
   0.25000000  0.00000000  0.00000000
   0.33333333  0.08333333  0.00000000
   0.41666667  0.16666667  0.00000000
   1.00000000  0.25000000  0.00000000
   0.08333333  0.33333333  0.00000000
   0.16666667  0.41666667  0.00000000
   0.25000000  0.25000000  0.00000000
   0.33333333  0.33333333  0.00000000
   0.41666667  0.41666667  0.00000000
   0.08333333  0.00000000  0.11454743
   0.00000000  0.16666667  0.11454743
   0.16666667  0.08333333  0.11454743
   0.33333333  0.00000000  0.11454743
   0.25000000  0.16666667  0.11454743
   0.41666667  0.08333333  0.11454743
   0.08333333  0.25000000  0.11454743
   1.00000000  0.41666667  0.11454743
   0.16666667  0.33333333  0.11454743
   0.33333333  0.25000000  0.11454743
   0.25000000  0.41666667  0.11454743
   0.41666667  0.33333333  0.11454743
   0.99993887  0.08345448  0.22706805
   0.16653939  0.00025574  0.22702357
   0.08314527  0.16680122  0.22709716
   0.24981944  0.08368271  0.22704462
   0.41671051  0.00050785  0.22705242
   0.33328789  0.16681209  0.22702943
   0.99984106  0.33347088  0.22711479
   0.16636967  0.25014607  0.22703781
   0.08309539  0.41675703  0.22699921
   0.24971047  0.33333694  0.22677704
   0.41697935  0.24980290  0.22656542
   0.33313385  0.41692663  0.22685818
   0.99988682  0.00009883  0.34162481
   0.08319067  0.08352294  0.34165556
   0.16653808  0.16674926  0.34164199
   0.24973435  0.00041749  0.34152809
   0.33324486  0.08341543  0.34161696
   0.41688920  0.16620177  0.34137118
   0.99989294  0.25008274  0.34165436
   0.08322859  0.33339761  0.34165551
   0.16646467  0.41654130  0.34148263
   0.24985511  0.24979479  0.34150912
   0.33370854  0.33225594  0.33998247
   0.41734993  0.41602545  0.34089478
   0.00000000  0.50000000  0.00000000
   0.08333333  0.58333333  0.00000000
   0.16666667  0.66666667  0.00000000
   0.25000000  0.50000000  0.00000000
   0.33333333  0.58333333  0.00000000
   0.41666667  0.66666667  0.00000000
   0.00000000  0.75000000  0.00000000
   0.08333333  0.83333333  0.00000000
   0.16666667  0.91666667  0.00000000
   0.25000000  0.75000000  0.00000000
   0.33333333  0.83333333  0.00000000
   0.41666667  0.91666667  0.00000000
   0.08333333  0.50000000  0.11454743
   1.00000000  0.66666667  0.11454743
   0.16666667  0.58333333  0.11454743
   0.33333333  0.50000000  0.11454743
   0.25000000  0.66666667  0.11454743
   0.41666667  0.58333333  0.11454743
   0.08333333  0.75000000  0.11454743
   0.00000000  0.91666667  0.11454743
   0.16666667  0.83333333  0.11454743
   0.33333333  0.75000000  0.11454743
   0.25000000  0.91666667  0.11454743
   0.41666667  0.83333333  0.11454743
   0.99996784  0.58324270  0.22711501
   0.16667115  0.49997601  0.22738474
   0.08301000  0.66656126  0.22720643
   0.24958754  0.58320231  0.22712739
   0.41662204  0.50011166  0.22678084
   0.33273121  0.66674293  0.22635485
   0.99971365  0.83338181  0.22710193
   0.16598546  0.74995232  0.22669590
   0.08312654  0.91672659  0.22703580
   0.24964372  0.83369076  0.22660919
   0.41652304  0.75071349  0.22586058
   0.33326030  0.91745189  0.22666731
   0.00006739  0.49998950  0.34175071
   0.08315268  0.58341398  0.34186084
   0.16625913  0.66696962  0.34180619
   0.25006207  0.49992640  0.34261174
   0.33304087  0.58314555  0.34132664
   0.41646690  0.66801145  0.33833264
   0.99987939  0.75001556  0.34168014
   0.08295586  0.83352676  0.34159435
   0.16619670  0.91716990  0.34145539
   0.24874276  0.75084255  0.34030604
   0.33238643  0.83481854  0.34041631
   0.41646842  0.91720973  0.34156207
   0.50000000  0.00000000  0.00000000
   0.58333333  0.08333333  0.00000000
   0.66666667  0.16666667  0.00000000
   0.75000000  0.00000000  0.00000000
   0.83333333  0.08333333  0.00000000
   0.91666667  0.16666667  0.00000000
   0.50000000  0.25000000  0.00000000
   0.58333333  0.33333333  0.00000000
   0.66666667  0.41666667  0.00000000
   0.75000000  0.25000000  0.00000000
   0.83333333  0.33333333  0.00000000
   0.91666667  0.41666667  0.00000000
   0.58333333  0.00000000  0.11454743
   0.50000000  0.16666667  0.11454743
   0.66666667  0.08333333  0.11454743
   0.83333333  0.00000000  0.11454743
   0.75000000  0.16666667  0.11454743
   0.91666667  0.08333333  0.11454743
   0.58333333  0.25000000  0.11454743
   0.50000000  0.41666667  0.11454743
   0.66666667  0.33333333  0.11454743
   0.83333333  0.25000000  0.11454743
   0.75000000  0.41666667  0.11454743
   0.91666667  0.33333333  0.11454743
   0.50033221  0.08319048  0.22699261
   0.66687348  0.99985801  0.22717633
   0.58367999  0.16633545  0.22706402
   0.75017281  0.08322072  0.22712953
   0.91661902  0.00011552  0.22711893
   0.83336494  0.16664439  0.22715388
   0.50032268  0.33306365  0.22680312
   0.66685001  0.24975644  0.22713837
   0.58353498  0.41641122  0.22718748
   0.75019076  0.33307276  0.22713573
   0.91669193  0.25000965  0.22707003
   0.83345951  0.41663073  0.22700985
   0.50000901  0.00008480  0.34166446
   0.58343656  0.08324906  0.34164963
   0.66673239  0.16657663  0.34168533
   0.75002540  0.00002232  0.34169163
   0.83329828  0.08342531  0.34175062
   0.91659818  0.16675567  0.34159913
   0.50024827  0.24977380  0.34148103
   0.58359650  0.33297691  0.34180564
   0.66682768  0.41643459  0.34186847
   0.74996482  0.25002222  0.34173440
   0.83333378  0.33332092  0.34169966
   0.91659932  0.41677864  0.34170278
   0.50000000  0.50000000  0.00000000
   0.58333333  0.58333333  0.00000000
   0.66666667  0.66666667  0.00000000
   0.75000000  0.50000000  0.00000000
   0.83333333  0.58333333  0.00000000
   0.91666667  0.66666667  0.00000000
   0.50000000  0.75000000  0.00000000
   0.58333333  0.83333333  0.00000000
   0.66666667  0.91666667  0.00000000
   0.75000000  0.75000000  0.00000000
   0.83333333  0.83333333  0.00000000
   0.91666667  0.91666667  0.00000000
   0.58333333  0.50000000  0.11454743
   0.50000000  0.66666667  0.11454743
   0.66666667  0.58333333  0.11454743
   0.83333333  0.50000000  0.11454743
   0.75000000  0.66666667  0.11454743
   0.91666667  0.58333333  0.11454743
   0.58333333  0.75000000  0.11454743
   0.50000000  0.91666667  0.11454743
   0.66666667  0.83333333  0.11454743
   0.83333333  0.75000000  0.11454743
   0.75000000  0.91666667  0.11454743
   0.91666667  0.83333333  0.11454743
   0.50016734  0.58316566  0.22639384
   0.66712987  0.49945973  0.22693393
   0.58359513  0.66666521  0.22689462
   0.74980766  0.58348038  0.22740516
   0.91657464  0.50009816  0.22705399
   0.83329272  0.66667957  0.22717841
   0.50003234  0.83402071  0.22680209
   0.66666341  0.74982653  0.22736859
   0.58357615  0.91671829  0.22698455
   0.74997535  0.83330764  0.22703474
   0.91650051  0.75001303  0.22716475
   0.83328542  0.91668905  0.22715317
   0.50001020  0.49958770  0.34133586
   0.58387463  0.58266421  0.34068982
   0.66654917  0.66665902  0.34246014
   0.75033853  0.49948197  0.34169414
   0.83364209  0.58326249  0.34165161
   0.91670485  0.66665648  0.34171825
   0.49965860  0.75105474  0.34049997
   0.58311920  0.83399114  0.34164053
   0.66670238  0.91663623  0.34175685
   0.75025528  0.75013809  0.34162950
   0.83332839  0.83338530  0.34172367
   0.91654545  0.91674209  0.34167579
   0.64219315  0.67048882  0.44522976
   0.71781611  0.65304358  0.50384374
   0.65768910  0.60826076  0.58854198
   0.67129688  0.55651224  0.51272656
   0.51655322  0.68518371  0.49915010
   0.56242271  0.52234838  0.55758612
   0.57433270  0.54057693  0.47320913
   0.45934970  0.55102163  0.45236359
   0.40524679  0.57807164  0.59778821
   0.46457808  0.48522551  0.55813861
   0.34270820  0.55521185  0.46647000
   0.34547011  0.46166324  0.59044654
   0.40402048  0.42285225  0.51754437
   0.27333426  0.47733598  0.45105306
   0.36972140  0.33433198  0.47377221
   0.26960542  0.35289845  0.47746160
   0.32415637  0.34044282  0.55246553
   0.54104746  0.78314191  0.51514360
   0.62080077  0.79774620  0.49111645
   0.61581713  0.76780512  0.57447136
   0.54147714  0.62897018  0.64516128
   0.44688746  0.69116535  0.60861744
   0.51548838  0.72603783  0.61743830
   0.37634648  0.70944679  0.52905774
   0.33677732  0.67627975  0.46477787
   0.41604671  0.69538580  0.44760206
   0.25223875  0.61037597  0.59905080
   0.21481734  0.63631627  0.51589616
   0.27237684  0.67479313  0.55061621
   0.20746047  0.47555289  0.59100554
   0.16042446  0.48072181  0.51320623
   0.17307294  0.56102886  0.53935961
   0.65387422  0.67372322  0.50056251
   0.63580980  0.61509448  0.53661068
   0.60505619  0.76039926  0.52158941
   0.54685847  0.63872918  0.53758185
   0.53667092  0.56783748  0.51791743
   0.51006642  0.67358292  0.60586263
   0.45205298  0.58375254  0.50035408
   0.41797404  0.54728801  0.54904410
   0.39196255  0.67035119  0.48513261
   0.34205516  0.54959451  0.52215201
   0.34567587  0.47004881  0.53568979
   0.26600432  0.62186047  0.54825241
   0.28215085  0.45502719  0.50449172
   0.31309826  0.36562683  0.50152995
   0.20099764  0.49620526  0.53881954
 
 position of ions in cartesian coordinates  (Angst):
   0.00000000  0.00000000  0.00000000
   2.42991799  1.40291380  0.00000000
   4.85983597  2.80582761  0.00000000
   4.85983597  0.00000000  0.00000000
   7.28975396  1.40291380  0.00000000
   9.71967195  2.80582761  0.00000000
  21.86926189  4.20874141  0.00000000
   4.85983597  5.61165522  0.00000000
   7.28975396  7.01456902  0.00000000
   7.28975396  4.20874141  0.00000000
   9.71967195  5.61165522  0.00000000
  12.14958994  7.01456902  0.00000000
   1.61994532  0.00000000  2.29094865
   1.61994532  2.80582761  2.29094865
   4.04986331  1.40291380  2.29094865
   6.47978130  0.00000000  2.29094865
   6.47978130  2.80582761  2.29094865
   8.90969929  1.40291380  2.29094865
   4.04986331  4.20874141  2.29094865
  23.48920721  7.01456902  2.29094865
   6.47978130  5.61165522  2.29094865
   8.90969929  4.20874141  2.29094865
   8.90969929  7.01456902  2.29094865
  11.33961727  5.61165522  2.29094865
  20.24930569  1.40495330  4.54136096
   3.23990219  0.00430542  4.54047144
   3.23754266  2.80809289  4.54194316
   5.66969452  1.40879550  4.54089237
   8.10551511  0.00854960  4.54104832
   8.10025668  2.80827572  4.54058859
  22.67748172  5.61397076  4.54229571
   5.66545486  4.21120042  4.54075611
   5.66606142  7.01609022  4.53998411
   8.09413331  5.61171591  4.53554077
  10.53380726  4.20542320  4.53130834
  10.52829343  7.01894542  4.53716362
  19.43810436  0.00166379  6.83249623
   2.42898762  1.40610585  6.83311116
   4.85813903  2.80721807  6.83283975
   4.85872988  0.00702849  6.83056189
   7.28883215  1.40429597  6.83233917
   9.71947925  2.79800111  6.82742361
  21.86798487  4.21013430  6.83308720
   4.85842467  5.61273736  6.83311017
   7.28460878  7.01245850  6.82965258
   7.28494281  4.20528669  6.83018246
   9.71649384  5.59351726  6.79964939
  12.15663975  7.00377418  6.81789570
   4.85983597  8.41748282  0.00000000
   7.28975396  9.82039663  0.00000000
   9.71967195 11.22331043  0.00000000
   9.71967195  8.41748282  0.00000000
  12.14958994  9.82039663  0.00000000
  14.57950792 11.22331043  0.00000000
   7.28975396 12.62622424  0.00000000
   9.71967195 14.02913804  0.00000000
  12.14958994 15.43205185  0.00000000
  12.14958994 12.62622424  0.00000000
  14.57950792 14.02913804  0.00000000
  17.00942591 15.43205185  0.00000000
   6.47978130  8.41748282  2.29094865
  25.91912520 11.22331043  2.29094865
   8.90969929  9.82039663  2.29094865
  11.33961727  8.41748282  2.29094865
  11.33961727 11.22331043  2.29094865
  13.76953526  9.82039663  2.29094865
   8.90969929 12.62622424  2.29094865
   8.90969929 15.43205185  2.29094865
  11.33961727 14.02913804  2.29094865
  13.76953526 12.62622424  2.29094865
  13.76953526 15.43205185  2.29094865
  16.19945325 14.02913804  2.29094865
  25.10764637  9.81887076  4.54230015
   8.09958063  8.41707903  4.54769472
   8.09241677 11.22153585  4.54412854
  10.52035314  9.81819091  4.54254789
  12.95978030  8.41936263  4.53561677
  12.94859900 11.22459437  4.52709698
  27.53397518 14.02995414  4.54203852
  10.51593901 12.62542148  4.53391799
  10.52620708 15.43306073  4.54071610
  12.95611077 14.03515530  4.53218370
  15.39362359 12.63823589  4.51721156
  15.39569306 15.44527108  4.53334629
   4.86104399  8.41730600  6.83501413
   7.28702603  9.82175438  6.83721687
   9.71469432 11.22841056  6.83612382
   9.72016311  8.41624371  6.85223480
  12.14207941  9.81723526  6.82653287
  14.58869539 11.24594986  6.76665287
  26.72690443 12.62648615  6.83360281
   9.71421418 14.03239445  6.83188695
  12.14534539 15.44052382  6.82910771
  12.13333940 12.64040860  6.80612072
  14.57553637 14.05414137  6.80832629
  17.01085067 15.44119438  6.83124142
   9.71967195  0.00000000  0.00000000
  12.14958994  1.40291380  0.00000000
  14.57950792  2.80582761  0.00000000
  14.57950792  0.00000000  0.00000000
  17.00942591  1.40291380  0.00000000
  19.43934390  2.80582761  0.00000000
  12.14958994  4.20874141  0.00000000
  14.57950792  5.61165522  0.00000000
  17.00942591  7.01456902  0.00000000
  17.00942591  4.20874141  0.00000000
  19.43934390  5.61165522  0.00000000
  21.86926189  7.01456902  0.00000000
  11.33961727  0.00000000  2.29094865
  11.33961727  2.80582761  2.29094865
  13.76953526  1.40291380  2.29094865
  16.19945325  0.00000000  2.29094865
  16.19945325  2.80582761  2.29094865
  18.62937124  1.40291380  2.29094865
  13.76953526  4.20874141  2.29094865
  13.76953526  7.01456902  2.29094865
  16.19945325  5.61165522  2.29094865
  18.62937124  4.20874141  2.29094865
  18.62937124  7.01456902  2.29094865
  21.05928922  5.61165522  2.29094865
  10.53471410  1.40050888  4.53985227
  22.68187474 16.83257524  4.54352658
  12.96308194  2.80025152  4.54128047
  15.39174543  1.40101798  4.54259061
  17.81959516  0.00194472  4.54237852
  17.81979647  2.80545251  4.54307759
  12.96321408  5.60711508  4.53606250
  15.39067724  4.20464103  4.54276748
  15.39091767  7.01026866  4.54374970
  17.82057410  5.60726855  4.54271466
  20.24990158  4.20890392  4.54140069
  20.25142015  7.01396401  4.54019694
   9.72067133  0.00142760  6.83328923
  12.15077739  1.40149503  6.83299265
  14.57991043  2.80431188  6.83370661
  14.58021868  0.00037584  6.83383259
  17.00963844  1.40446229  6.83501232
  19.43887765  2.80732605  6.83198251
  12.15221758  4.20493334  6.82962061
  14.58115934  5.60565490  6.83611283
  17.01030020  7.01066198  6.83736940
  17.00895792  4.20911549  6.83468799
  19.43923195  5.61144627  6.83399317
  21.86904094  7.01645403  6.83405569
  14.57950792  8.41748282  0.00000000
  17.00942591  9.82039663  0.00000000
  19.43934390 11.22331043  0.00000000
  19.43934390  8.41748282  0.00000000
  21.86926189  9.82039663  0.00000000
  24.29917987 11.22331043  0.00000000
  17.00942591 12.62622424  0.00000000
  19.43934390 14.02913804  0.00000000
  21.86926189 15.43205185  0.00000000
  21.86926189 12.62622424  0.00000000
  24.29917987 14.02913804  0.00000000
  26.72909786 15.43205185  0.00000000
  16.19945325  8.41748282  2.29094865
  16.19945325 11.22331043  2.29094865
  18.62937124  9.82039663  2.29094865
  21.05928922  8.41748282  2.29094865
  21.05928922 11.22331043  2.29094865
  23.48920721  9.82039663  2.29094865
  18.62937124 12.62622424  2.29094865
  18.62937124 15.43205185  2.29094865
  21.05928922 14.02913804  2.29094865
  23.48920721 12.62622424  2.29094865
  23.48920721 15.43205185  2.29094865
  25.91912520 14.02913804  2.29094865
  15.39110374  9.81757384  4.52787688
  17.82315177  8.40838746  4.53867863
  17.82447346 11.22328588  4.53789230
  20.24700676  9.82287208  4.54810315
  22.67839973  8.41913530  4.54107972
  22.67857046 11.22352772  4.54356830
  17.82670828 14.04071007  4.53604184
  20.24756721 12.62330392  4.54737182
  20.25453843 15.43292093  4.53969099
  22.67850564 14.02870554  4.54069477
  25.10604930 12.62644364  4.54329507
  25.10843863 15.43242866  4.54306331
  14.57569881  8.41054184  6.82671726
  17.01344478  9.80913200  6.81379631
  19.43698554 11.22318171  6.84920285
  19.44088954  8.40876176  6.83388289
  21.87457525  9.81920392  6.83303226
  24.29982313 11.22313900  6.83436504
  17.01304100 12.64398080  6.80999943
  19.44157491 14.04021225  6.83281060
  21.86966034 15.43153946  6.83513706
  21.87556655 12.62854904  6.83259004
  24.29958896 14.03001296  6.83447340
  26.72747452 15.43332159  6.83351585
  19.00074486 11.28765619  8.90459525
  20.30124367 10.99396628 10.07687479
  18.69713958 10.24004896 11.77083959
  18.45868731  9.36886441 10.25453112
  16.70121648 11.53504416  9.98300195
  16.01018343  8.79371708 11.15172250
  16.41888131  9.10059399  9.46418260
  14.28520630  9.27643023  9.04727181
  13.49639849  9.73181622 11.95576417
  13.74732575  8.16875476 11.16277214
  12.05849955  9.34697242  9.32940003
  11.20292753  7.77208485 11.80893080
  11.96387826  7.11870304 10.35088738
   9.95298769  8.03593475  9.02106117
  10.43673862  5.62846746  9.47544423
   8.67100962  5.94103336  9.54923191
   9.61037971  5.73134326 11.04931052
  18.12949004 13.18416721 10.30287197
  19.82179105 13.43002994  9.82232903
  19.43389488 12.92597282 11.48942714
  16.63934421 10.58869145 12.90322552
  15.40509945 11.63574485 12.17234875
  17.07760541 12.22282198 12.34876602
  14.21151867 11.94351237 10.58115475
  13.11994739 11.38514641  9.29555734
  14.84659694 11.70679603  8.95204119
  10.83601005 10.27565842 11.98101606
  10.36069354 10.71236248 10.31792330
  11.85359502 11.36011918 11.01232417
   8.65511355  8.00591650 11.82011084
   7.79100460  8.09293522 10.26412460
   8.81744084  9.44490163 10.78719220
  19.25925438 11.34210718 10.01125019
  18.33824201 10.35509452 10.73221364
  19.15272658 12.80129534 10.43178815
  16.83880805 10.75298383 10.75163704
  15.95172468  9.55952452 10.35834860
  16.46236160 11.33974525 12.11725269
  14.46149657  9.82745391 10.00708157
  13.44460097  9.21357477 10.98088198
  14.13508837 11.28533919  9.70265227
  11.99120624  9.25240473 10.44304029
  11.28843234  7.91325549 10.71379574
  11.21522919 10.46899971 10.96504826
   9.90754247  7.66036707 10.08983436
   9.64019759  6.15531519 10.03059909
   8.73021463  8.35359849 10.77639085
 


--------------------------------------------------------------------------------------------------------


 k-point  1 :   0.0000 0.0000 0.0000  plane waves:  142035
 k-point  2 :   0.3333-0.0000 0.0000  plane waves:  141928
 k-point  3 :   0.0000 0.3333 0.0000  plane waves:  141928
 k-point  4 :   0.3333 0.3333 0.0000  plane waves:  141928
 k-point  5 :  -0.3333 0.3333 0.0000  plane waves:  141846

 maximum and minimum number of plane-waves per node :    142035   141846

 maximum number of plane-waves:    142035
 maximum index in each direction: 
   IXMAX=   33   IYMAX=   33   IZMAX=   34
   IXMIN=  -33   IYMIN=  -33   IZMIN=  -34


 serial   3D FFT for wavefunctions
 parallel 3D FFT for charge:
    minimum data exchange during FFTs selected (reduces bandwidth)


 total amount of memory used by VASP MPI-rank0   504452. kBytes
=======================================================================

   base      :      30000. kBytes
   nonlr-proj:      88926. kBytes
   fftplans  :      12889. kBytes
   grid      :      65608. kBytes
   one-center:       3716. kBytes
   wavefun   :     303313. kBytes
 
     INWAV:  cpu time    0.0000: real time    0.0004
 Broyden mixing: mesh for mixing (old mesh)
   NGX = 67   NGY = 67   NGZ = 69
  (NGX  =216   NGY  =216   NGZ  =216)
  gives a total of 309741 points

 initial charge density was supplied:
 charge density of overlapping atoms calculated
 number of electron    2012.0000000 magnetization 
 keeping initial charge density in first step


--------------------------------------------------------------------------------------------------------


 Maximum index for non-local projection operator         2491
 Maximum index for augmentation-charges          550 (set IRDMAX)


--------------------------------------------------------------------------------------------------------


 First call to EWALD:  gamma=   0.095
 Maximum number of real-space cells 3x 3x 3
 Maximum number of reciprocal cells 3x 3x 3

    FEWALD:  cpu time    0.0117: real time    0.0117


--------------------------------------- Iteration      1(   1)  ---------------------------------------


    POTLOK:  cpu time    0.2143: real time    0.2272
    SETDIJ:  cpu time    0.0213: real time    0.0305
     EDDAV:  cpu time  111.8949: real time  111.9552
       DOS:  cpu time    0.0017: real time    0.0037
    --------------------------------------------
      LOOP:  cpu time  112.1323: real time  112.2166

 eigenvalue-minimisations  : 12480
 total energy-change (2. order) : 0.1218010E+05  (-0.8621181E+05)
 number of electron    2012.0000000 magnetization 
 augmentation part     2012.0000000 magnetization 

 DIPCOR: dipole corrections for dipol
 direction  3 min pos   159,
 dipolmoment           0.000000      0.000000     -0.283693 electrons x Angstroem
 Tr[quadrupol]   -132590.311466

 energy correction for charged system         0.000000 eV
 dipol+quadrupol energy correction           -0.001170 eV
 added-field ion interaction        -14.743819 eV  (added to PSCEN)


 Free energy of the ion-electron system (eV)
  ---------------------------------------------------
  alpha Z        PSCENC =      5714.33239058
  Ewald energy   TEWEN  =    335041.37397771
  -Hartree energ DENC   =   -489639.55078350
  -exchange      EXHF   =         0.00000000
  -V(xc)+E(xc)   XCENC  =       924.43860273
  PAW double counting   =    135351.83837586  -129930.28138632
  entropy T*S    EENTRO =        -0.04257346
  eigenvalues    EBANDS =     12121.74622821
  atomic energy  EATOM  =    142596.24223036
  Solvation  Ediel_sol  =         0.00000000
  ---------------------------------------------------
  free energy    TOTEN  =     12180.09706218 eV

  energy without entropy =    12180.13963563  energy(sigma->0) =    12180.11834890


--------------------------------------------------------------------------------------------------------




--------------------------------------- Iteration      1(   2)  ---------------------------------------


     EDDAV:  cpu time  118.4000: real time  118.4212
       DOS:  cpu time    0.0013: real time    0.0013
    --------------------------------------------
      LOOP:  cpu time  118.4013: real time  118.4225

 eigenvalue-minimisations  : 14160
 total energy-change (2. order) :-0.1279369E+05  (-0.1179036E+05)
 number of electron    2012.0000000 magnetization 
 augmentation part     2012.0000000 magnetization 

 DIPCOR: dipole corrections for dipol
 direction  3 min pos   159,
 dipolmoment           0.000000      0.000000     -0.283693 electrons x Angstroem
 Tr[quadrupol]   -132590.311466

 energy correction for charged system         0.000000 eV
 dipol+quadrupol energy correction           -0.001170 eV
 added-field ion interaction        -14.743819 eV  (added to PSCEN)


 Free energy of the ion-electron system (eV)
  ---------------------------------------------------
  alpha Z        PSCENC =      5714.33239058
  Ewald energy   TEWEN  =    335041.37397771
  -Hartree energ DENC   =   -489639.55078350
  -exchange      EXHF   =         0.00000000
  -V(xc)+E(xc)   XCENC  =       924.43860273
  PAW double counting   =    135351.83837586  -129930.28138632
  entropy T*S    EENTRO =        -0.09930712
  eigenvalues    EBANDS =      -671.88363078
  atomic energy  EATOM  =    142596.24223036
  Solvation  Ediel_sol  =         0.00000000
  ---------------------------------------------------
  free energy    TOTEN  =      -613.58953047 eV

  energy without entropy =     -613.49022336  energy(sigma->0) =     -613.53987691


--------------------------------------------------------------------------------------------------------




--------------------------------------- Iteration      1(   3)  ---------------------------------------


     EDDAV:  cpu time  123.4369: real time  123.4602
       DOS:  cpu time    0.0013: real time    0.0013
    --------------------------------------------
      LOOP:  cpu time  123.4383: real time  123.4615

 eigenvalue-minimisations  : 14928
 total energy-change (2. order) :-0.8232015E+03  (-0.7498105E+03)
 number of electron    2012.0000000 magnetization 
 augmentation part     2012.0000000 magnetization 

 DIPCOR: dipole corrections for dipol
 direction  3 min pos   159,
 dipolmoment           0.000000      0.000000     -0.283693 electrons x Angstroem
 Tr[quadrupol]   -132590.311466

 energy correction for charged system         0.000000 eV
 dipol+quadrupol energy correction           -0.001170 eV
 added-field ion interaction        -14.743819 eV  (added to PSCEN)


 Free energy of the ion-electron system (eV)
  ---------------------------------------------------
  alpha Z        PSCENC =      5714.33239058
  Ewald energy   TEWEN  =    335041.37397771
  -Hartree energ DENC   =   -489639.55078350
  -exchange      EXHF   =         0.00000000
  -V(xc)+E(xc)   XCENC  =       924.43860273
  PAW double counting   =    135351.83837586  -129930.28138632
  entropy T*S    EENTRO =        -0.18719082
  eigenvalues    EBANDS =     -1494.99720438
  atomic energy  EATOM  =    142596.24223036
  Solvation  Ediel_sol  =         0.00000000
  ---------------------------------------------------
  free energy    TOTEN  =     -1436.79098777 eV

  energy without entropy =    -1436.60379695  energy(sigma->0) =    -1436.69739236


--------------------------------------------------------------------------------------------------------




--------------------------------------- Iteration      1(   4)  ---------------------------------------


     EDDAV:  cpu time  131.1364: real time  131.1635
       DOS:  cpu time    0.0013: real time    0.0013
    --------------------------------------------
      LOOP:  cpu time  131.1378: real time  131.1648

 eigenvalue-minimisations  : 15408
 total energy-change (2. order) :-0.3102421E+02  (-0.3035003E+02)
 number of electron    2012.0000000 magnetization 
 augmentation part     2012.0000000 magnetization 

 DIPCOR: dipole corrections for dipol
 direction  3 min pos   159,
 dipolmoment           0.000000      0.000000     -0.283693 electrons x Angstroem
 Tr[quadrupol]   -132590.311466

 energy correction for charged system         0.000000 eV
 dipol+quadrupol energy correction           -0.001170 eV
 added-field ion interaction        -14.743819 eV  (added to PSCEN)


 Free energy of the ion-electron system (eV)
  ---------------------------------------------------
  alpha Z        PSCENC =      5714.33239058
  Ewald energy   TEWEN  =    335041.37397771
  -Hartree energ DENC   =   -489639.55078350
  -exchange      EXHF   =         0.00000000
  -V(xc)+E(xc)   XCENC  =       924.43860273
  PAW double counting   =    135351.83837586  -129930.28138632
  entropy T*S    EENTRO =        -0.19903945
  eigenvalues    EBANDS =     -1526.00956487
  atomic energy  EATOM  =    142596.24223036
  Solvation  Ediel_sol  =         0.00000000
  ---------------------------------------------------
  free energy    TOTEN  =     -1467.81519690 eV

  energy without entropy =    -1467.61615745  energy(sigma->0) =    -1467.71567718


--------------------------------------------------------------------------------------------------------




--------------------------------------- Iteration      1(   5)  ---------------------------------------


     EDDAV:  cpu time  139.7026: real time  139.7335
       DOS:  cpu time    0.0014: real time    0.0014
    --------------------------------------------
      LOOP:  cpu time  139.7040: real time  139.7349

 eigenvalue-minimisations  : 17424
 total energy-change (2. order) :-0.1130533E+01  (-0.1128695E+01)
 number of electron    2012.0000000 magnetization 
 augmentation part     2012.0000000 magnetization 

 DIPCOR: dipole corrections for dipol
 direction  3 min pos   159,
 dipolmoment           0.000000      0.000000     -0.283693 electrons x Angstroem
 Tr[quadrupol]   -132590.311466

 energy correction for charged system         0.000000 eV
 dipol+quadrupol energy correction           -0.001170 eV
 added-field ion interaction        -14.743819 eV  (added to PSCEN)


 Free energy of the ion-electron system (eV)
  ---------------------------------------------------
  alpha Z        PSCENC =      5714.33239058
  Ewald energy   TEWEN  =    335041.37397771
  -Hartree energ DENC   =   -489639.55078350
  -exchange      EXHF   =         0.00000000
  -V(xc)+E(xc)   XCENC  =       924.43860273
  PAW double counting   =    135351.83837586  -129930.28138632
  entropy T*S    EENTRO =        -0.19910832
  eigenvalues    EBANDS =     -1527.14002865
  atomic energy  EATOM  =    142596.24223036
  Solvation  Ediel_sol  =         0.00000000
  ---------------------------------------------------
  free energy    TOTEN  =     -1468.94572954 eV

  energy without entropy =    -1468.74662122  energy(sigma->0) =    -1468.84617538


--------------------------------------------------------------------------------------------------------




--------------------------------------- Iteration      1(   6)  ---------------------------------------


     EDDAV:  cpu time  131.7167: real time  131.7463
       DOS:  cpu time    0.0013: real time    0.0013
    --------------------------------------------
      LOOP:  cpu time  131.7181: real time  131.7476

 eigenvalue-minimisations  : 16224
 total energy-change (2. order) :-0.3229882E-01  (-0.3228370E-01)
 number of electron    2012.0000000 magnetization 
 augmentation part     2012.0000000 magnetization 

 DIPCOR: dipole corrections for dipol
 direction  3 min pos   159,
 dipolmoment           0.000000      0.000000     -0.283693 electrons x Angstroem
 Tr[quadrupol]   -132590.311466

 energy correction for charged system         0.000000 eV
 dipol+quadrupol energy correction           -0.001170 eV
 added-field ion interaction        -14.743819 eV  (added to PSCEN)


 Free energy of the ion-electron system (eV)
  ---------------------------------------------------
[...]

  energy  without entropy=    -1388.08760184  energy(sigma->0) =    -1388.20332256
 


--------------------------------------------------------------------------------------------------------


    POTLOK:  cpu time    0.4093: real time    0.4094


--------------------------------------------------------------------------------------------------------




--------------------------------------------------------------------------------------------------------


    WAVPRE:  cpu time    0.3140: real time    0.3235
    FEWALD:  cpu time    0.0425: real time    0.0425
    ORTHCH:  cpu time   14.8640: real time   15.1767
     LOOP+:  cpu time 4485.1812: real time 4491.6179


--------------------------------------- Iteration      2(   1)  ---------------------------------------


    POTLOK:  cpu time    0.2046: real time    0.2053
    SETDIJ:  cpu time    0.0210: real time    0.0210
     EDDAV:  cpu time  108.8191: real time  109.4806
       DOS:  cpu time    0.0013: real time    0.0013
    CHARGE:  cpu time    4.5220: real time    4.5227
    MIXING:  cpu time    0.0054: real time    0.0054
    --------------------------------------------
      LOOP:  cpu time  113.5734: real time  114.2364

 eigenvalue-minimisations  : 12768
 total energy-change (2. order) :-0.8127959E-03  (-0.9344951E-03)
 number of electron    2012.0000641 magnetization 
 augmentation part      598.6337727 magnetization 

 DIPCOR: dipole corrections for dipol
 direction  3 min pos   159,
 dipolmoment           0.000000      0.000000     -0.738100 electrons x Angstroem
 Tr[quadrupol]   -132604.625711

 energy correction for charged system         0.000000 eV
 dipol+quadrupol energy correction           -0.007921 eV
 added-field ion interaction        -38.359865 eV  (added to PSCEN)


  free energy =  -0.136534793074E+04  energy without entropy=  -0.136511648394E+04


--------------------------------------------------------------------------------------------------------




--------------------------------------- Iteration      2(   2)  ---------------------------------------


    POTLOK:  cpu time    0.2037: real time    0.2045
    SETDIJ:  cpu time    0.0211: real time    0.0211
    EDDIAG:  cpu time   20.5125: real time   20.5177
  RMM-DIIS:  cpu time   48.4192: real time   49.2487
    ORTHCH:  cpu time    7.0962: real time    7.0978
       DOS:  cpu time    0.0013: real time    0.0013
    CHARGE:  cpu time    4.3589: real time    4.6248
    MIXING:  cpu time    0.0056: real time    0.0056
    --------------------------------------------
      LOOP:  cpu time   80.6187: real time   81.7216

 eigenvalue-minimisations  : 12497
 total energy-change (2. order) :-0.3350819E-02  (-0.8216036E-04)
 number of electron    2012.0000641 magnetization 
 augmentation part      598.6338187 magnetization 

 DIPCOR: dipole corrections for dipol
 direction  3 min pos   159,
 dipolmoment           0.000000      0.000000     -0.759515 electrons x Angstroem
 Tr[quadrupol]   -132604.573817

 energy correction for charged system         0.000000 eV
 dipol+quadrupol energy correction           -0.008387 eV
 added-field ion interaction        -39.472851 eV  (added to PSCEN)


 eigenvalues of (default mixing * dielectric matrix)
  average eigenvalue GAMMA=   0.0662
  0.0662

  free energy =  -0.136535128155E+04  energy without entropy=  -0.136511990327E+04


--------------------------------------------------------------------------------------------------------




--------------------------------------- Iteration      2(   3)  ---------------------------------------


    POTLOK:  cpu time    0.2048: real time    0.2063
    SETDIJ:  cpu time    0.0208: real time    0.0208
    EDDIAG:  cpu time   20.5265: real time   20.5320
  RMM-DIIS:  cpu time   49.0340: real time   49.2109
    ORTHCH:  cpu time    7.0032: real time    7.0048
       DOS:  cpu time    0.0013: real time    0.0013
    CHARGE:  cpu time    4.5016: real time    4.5047
    MIXING:  cpu time    0.0058: real time    0.0058
    --------------------------------------------
      LOOP:  cpu time   81.2981: real time   81.4865

 eigenvalue-minimisations  : 12390
 total energy-change (2. order) : 0.3205817E-02  (-0.4299159E-04)
 number of electron    2012.0000641 magnetization 
 augmentation part      598.6353710 magnetization 

 DIPCOR: dipole corrections for dipol
 direction  3 min pos   159,
 dipolmoment           0.000000      0.000000     -0.736493 electrons x Angstroem
 Tr[quadrupol]   -132604.629039

 energy correction for charged system         0.000000 eV
 dipol+quadrupol energy correction           -0.007886 eV
 added-field ion interaction        -38.276336 eV  (added to PSCEN)


 eigenvalues of (default mixing * dielectric matrix)
  average eigenvalue GAMMA=   0.1497
  0.2365  0.0629

  free energy =  -0.136534807574E+04  energy without entropy=  -0.136511662314E+04


--------------------------------------------------------------------------------------------------------




--------------------------------------- Iteration      2(   4)  ---------------------------------------


    POTLOK:  cpu time    0.2083: real time    0.2096
    SETDIJ:  cpu time    0.0208: real time    0.0208
    EDDIAG:  cpu time   25.7769: real time   25.7828
  RMM-DIIS:  cpu time   31.3692: real time   31.3858
    ORTHCH:  cpu time    6.9256: real time    6.9273
       DOS:  cpu time    0.0013: real time    0.0013
    CHARGE:  cpu time    4.5192: real time    4.5206
    MIXING:  cpu time    0.0061: real time    0.0061
    --------------------------------------------
      LOOP:  cpu time   68.8274: real time   68.8544

 eigenvalue-minimisations  :  7700
 total energy-change (2. order) : 0.9999552E-05  (-0.2206704E-05)
 number of electron    2012.0000641 magnetization 
 augmentation part      598.6351576 magnetization 

 DIPCOR: dipole corrections for dipol
 direction  3 min pos   159,
 dipolmoment           0.000000      0.000000     -0.736887 electrons x Angstroem
 Tr[quadrupol]   -132604.629559

 energy correction for charged system         0.000000 eV
 dipol+quadrupol energy correction           -0.007895 eV
 added-field ion interaction        -38.296811 eV  (added to PSCEN)


 eigenvalues of (default mixing * dielectric matrix)
  average eigenvalue GAMMA=   0.3727
  0.8920  0.0626  0.1635

  free energy =  -0.136534806574E+04  energy without entropy=  -0.136511663411E+04


--------------------------------------------------------------------------------------------------------




--------------------------------------- Iteration      2(   5)  ---------------------------------------


    POTLOK:  cpu time    0.2028: real time    0.2043
    SETDIJ:  cpu time    0.0207: real time    0.0207
    EDDIAG:  cpu time   20.4751: real time   20.4812
  RMM-DIIS:  cpu time   28.3555: real time   28.3942
    ORTHCH:  cpu time    7.0180: real time    7.0188
       DOS:  cpu time    0.0014: real time    0.0014
    CHARGE:  cpu time    4.5563: real time    4.5572
    MIXING:  cpu time    0.0062: real time    0.0062
    --------------------------------------------
      LOOP:  cpu time   60.6360: real time   60.6840

 eigenvalue-minimisations  :  6983
 total energy-change (2. order) :-0.6281503E-04  (-0.1028955E-05)
 number of electron    2012.0000641 magnetization 
 augmentation part      598.6351294 magnetization 

 DIPCOR: dipole corrections for dipol
 direction  3 min pos   159,
 dipolmoment           0.000000      0.000000     -0.736254 electrons x Angstroem
 Tr[quadrupol]   -132604.633871

 energy correction for charged system         0.000000 eV
 dipol+quadrupol energy correction           -0.007881 eV
 added-field ion interaction        -38.263932 eV  (added to PSCEN)


 eigenvalues of (default mixing * dielectric matrix)
  average eigenvalue GAMMA=   0.3791
  1.1495  0.0628  0.1847  0.1195

  free energy =  -0.136534812855E+04  energy without entropy=  -0.136511670783E+04


--------------------------------------------------------------------------------------------------------




--------------------------------------- Iteration      2(   6)  ---------------------------------------


    POTLOK:  cpu time    0.2018: real time    0.2032
    SETDIJ:  cpu time    0.0208: real time    0.0208
    EDDIAG:  cpu time   20.4381: real time   20.4427
  RMM-DIIS:  cpu time   27.7221: real time   27.7270
    ORTHCH:  cpu time    7.0250: real time    7.0264
       DOS:  cpu time    0.0013: real time    0.0013
    CHARGE:  cpu time    4.5797: real time    4.5805
    MIXING:  cpu time    0.0065: real time    0.0065
    --------------------------------------------
      LOOP:  cpu time   59.9953: real time   60.0085

 eigenvalue-minimisations  :  6771
 total energy-change (2. order) :-0.1934826E-04  (-0.4355037E-06)
 number of electron    2012.0000641 magnetization 
 augmentation part      598.6352061 magnetization 

 DIPCOR: dipole corrections for dipol
 direction  3 min pos   159,
 dipolmoment           0.000000      0.000000     -0.735696 electrons x Angstroem
 Tr[quadrupol]   -132604.635737

 energy correction for charged system         0.000000 eV
 dipol+quadrupol energy correction           -0.007869 eV
 added-field ion interaction        -38.234923 eV  (added to PSCEN)


 eigenvalues of (default mixing * dielectric matrix)
  average eigenvalue GAMMA=   0.4504
  1.5976  0.3687  0.1583  0.0624  0.0648

  free energy =  -0.136534814790E+04  energy without entropy=  -0.136511671444E+04


--------------------------------------------------------------------------------------------------------




--------------------------------------- Iteration      2(   7)  ---------------------------------------


    POTLOK:  cpu time    0.2022: real time    0.2035
    SETDIJ:  cpu time    0.0208: real time    0.0208
    EDDIAG:  cpu time   20.4906: real time   20.4939
  RMM-DIIS:  cpu time   27.5364: real time   27.5411
    ORTHCH:  cpu time    7.0944: real time    7.0955
       DOS:  cpu time    0.0014: real time    0.0014
    CHARGE:  cpu time    4.5316: real time    4.5326
    MIXING:  cpu time    0.0068: real time    0.0068
    --------------------------------------------
      LOOP:  cpu time   59.8841: real time   59.8956

 eigenvalue-minimisations  :  6768
 total energy-change (2. order) :-0.3503403E-04  (-0.5150199E-06)
 number of electron    2012.0000641 magnetization 
 augmentation part      598.6353113 magnetization 

 DIPCOR: dipole corrections for dipol
 direction  3 min pos   159,
 dipolmoment           0.000000      0.000000     -0.735136 electrons x Angstroem
 Tr[quadrupol]   -132604.638140

 energy correction for charged system         0.000000 eV
 dipol+quadrupol energy correction           -0.007857 eV
 added-field ion interaction        -38.205837 eV  (added to PSCEN)


 eigenvalues of (default mixing * dielectric matrix)
  average eigenvalue GAMMA=   0.5270
  1.9652  0.7048  0.2117  0.1551  0.0627  0.0624

  free energy =  -0.136534818294E+04  energy without entropy=  -0.136511674315E+04


--------------------------------------------------------------------------------------------------------




--------------------------------------- Iteration      2(   8)  ---------------------------------------


    POTLOK:  cpu time    0.2026: real time    0.2033
    SETDIJ:  cpu time    0.0207: real time    0.0207
    EDDIAG:  cpu time   20.5483: real time   20.5517
  RMM-DIIS:  cpu time   27.7640: real time   27.7687
    ORTHCH:  cpu time    7.0814: real time    7.0825
       DOS:  cpu time    0.0014: real time    0.0014
    CHARGE:  cpu time    4.4344: real time    4.6876
    MIXING:  cpu time    0.0184: real time    0.0184
    --------------------------------------------
      LOOP:  cpu time   60.0711: real time   60.3343

 eigenvalue-minimisations  :  6787
 total energy-change (2. order) :-0.5637630E-04  (-0.3999956E-06)
 number of electron    2012.0000641 magnetization 
 augmentation part      598.6352009 magnetization 

 DIPCOR: dipole corrections for dipol
 direction  3 min pos   159,
 dipolmoment           0.000000      0.000000     -0.734228 electrons x Angstroem
 Tr[quadrupol]   -132604.644897

 energy correction for charged system         0.000000 eV
 dipol+quadrupol energy correction           -0.007838 eV
 added-field ion interaction        -38.158648 eV  (added to PSCEN)


 eigenvalues of (default mixing * dielectric matrix)
  average eigenvalue GAMMA=   0.5394
  2.1880  0.8428  0.2844  0.1841  0.1514  0.0628  0.0623

  free energy =  -0.136534823931E+04  energy without entropy=  -0.136511681074E+04


--------------------------------------------------------------------------------------------------------




--------------------------------------- Iteration      2(   9)  ---------------------------------------


    POTLOK:  cpu time    0.2881: real time    0.2884
    SETDIJ:  cpu time    0.0373: real time    0.0372
    EDDIAG:  cpu time   24.6582: real time   24.6643
  RMM-DIIS:  cpu time   27.0313: real time   27.0377
    ORTHCH:  cpu time    7.0267: real time    7.0280
       DOS:  cpu time    0.0014: real time    0.0014
    CHARGE:  cpu time    4.5106: real time    4.5114
    MIXING:  cpu time    0.0073: real time    0.0073
    --------------------------------------------
      LOOP:  cpu time   63.5608: real time   63.5757

 eigenvalue-minimisations  :  6356
 total energy-change (2. order) :-0.3177114E-04  (-0.1767649E-06)
 number of electron    2012.0000641 magnetization 
 augmentation part      598.6351801 magnetization 

 DIPCOR: dipole corrections for dipol
 direction  3 min pos   159,
 dipolmoment           0.000000      0.000000     -0.733743 electrons x Angstroem
 Tr[quadrupol]   -132604.648786

 energy correction for charged system         0.000000 eV
 dipol+quadrupol energy correction           -0.007827 eV
 added-field ion interaction        -38.133427 eV  (added to PSCEN)


 eigenvalues of (default mixing * dielectric matrix)
  average eigenvalue GAMMA=   0.4909
  2.2098  0.8595  0.3047  0.1919  0.1519  0.0627  0.0623  0.0842

  free energy =  -0.136534827108E+04  energy without entropy=  -0.136511684414E+04


--------------------------------------------------------------------------------------------------------




--------------------------------------- Iteration      2(  10)  ---------------------------------------


    POTLOK:  cpu time    0.2035: real time    0.2035
    SETDIJ:  cpu time    0.0208: real time    0.0208
    EDDIAG:  cpu time   20.3417: real time   20.3453
  RMM-DIIS:  cpu time   18.8067: real time   18.8105
    ORTHCH:  cpu time    6.9877: real time    6.9889
       DOS:  cpu time    0.0013: real time    0.0013
    --------------------------------------------
      LOOP:  cpu time   46.3617: real time   46.3704

 eigenvalue-minimisations  :  1947
 total energy-change (2. order) :-0.6391056E-05  (-0.1716397E-07)
 number of electron    2012.0000641 magnetization 
 augmentation part      598.6351801 magnetization 

 DIPCOR: dipole corrections for dipol
 direction  3 min pos   159,
 dipolmoment           0.000000      0.000000     -0.733624 electrons x Angstroem
 Tr[quadrupol]   -132604.649724

 energy correction for charged system         0.000000 eV
 dipol+quadrupol energy correction           -0.007825 eV
 added-field ion interaction        -38.127229 eV  (added to PSCEN)


  free energy =  -0.136534827747E+04  energy without entropy=  -0.136511684877E+04


--------------------------------------------------------------------------------------------------------




------------------------ aborting loop because EDIFF is reached ----------------------------------------


    CHARGE:  cpu time    4.5169: real time    4.5177
    FORLOC:  cpu time    0.2157: real time    0.2158
    FORNL :  cpu time   17.3583: real time   17.3647
    STRESS:  cpu time   51.7610: real time   51.7685
    FORCOR:  cpu time    0.3375: real time    0.3377
    FORHAR:  cpu time    0.2541: real time    0.2541
    MIXING:  cpu time    0.0075: real time    0.0075
    OFIELD:  cpu time    0.0001: real time    0.0001

  Number of pair interactions contributing to vdW energy: 1166997
  Edisp (eV):  -22.97148
    FORVDW:  cpu time    0.1836: real time    0.1836

  FORCE on cell =-STRESS in cart. coord.  units (eV):
  Direction    XX          YY          ZZ          XY          YZ          ZX
  --------------------------------------------------------------------------------------
  Alpha Z  5729.07738  5729.07738  5729.07738
  Ewald  439379.51552435928.04739************  1678.91747   221.45669   -70.04188
  Hartree476313.47158473124.30644************  1530.21623   185.32024   -45.78117
  E(xc)   -8815.21608 -8815.70540 -8869.15434     0.22419     0.05043    -0.04816
  Local  ************************964285.96125 -3209.85194  -409.89304   118.24211
  n-local   710.00525   710.08016   591.59246     0.46931     0.04138    -0.20133
  augment 10019.99338 10020.06008 10296.35783    -0.30414     0.20673    -0.03599
  Kinetic 28923.41824 28923.90666 29643.08132     0.86612     2.64247    -1.90628
  Fock        0.00000     0.00000     0.00000     0.00000     0.00000     0.00000
  vdW       -32.03986   -31.64476   -24.91010    -0.48669    -0.10075     0.09030
  -------------------------------------------------------------------------------------
  Total    -214.15484  -213.97118    -3.03799     0.05054    -0.27585     0.31760
  in kB     -52.42213   -52.37717    -0.74366     0.01237    -0.06752     0.07774
  external pressure =      -35.18 kB  Pullay stress =        0.00 kB



--------------------------------------------------------------------------------------------------------



  FREE ENERGIE OF THE ION-ELECTRON SYSTEM (eV)
  ---------------------------------------------------
  free  energy   TOTEN  =     -1388.31975490 eV

  energy  without entropy=    -1388.08832620  energy(sigma->0) =    -1388.20404055
 
 d Force = 0.1782831E-03[ 0.835E-04, 0.273E-03]  d Energy = 0.7116286E-03-0.533E-03
 d Force =-0.9015939E+00[-0.902E+00,-0.901E+00]  d Ewald  =-0.9015921E+00-0.179E-05


--------------------------------------------------------------------------------------------------------


    POTLOK:  cpu time    0.2318: real time    0.2318


--------------------------------------------------------------------------------------------------------


 Steepest descent step on ions:
 trial-energy change:   -0.000712  1 .order   -0.000178   -0.000273   -0.000084
  (g-gl).g = 0.273E-03      g.g   = 0.273E-03  gl.gl    = 0.000E+00
 g(Force)  = 0.273E-03   g(Stress)= 0.000E+00 ortho     = 0.000E+00
 gamma     =   0.00000
 trial     =   1.00000
 opt step  =   1.02409  (harmonic =   1.44053) maximal distance =0.00039587
 next E    = -1388.319756   (d E  =  -0.00071)


--------------------------------------------------------------------------------------------------------


  
 reached required accuracy - stopping structural energy minimisation
     LOOP+:  cpu time  769.8009: real time  772.1592
    4ORBIT:  cpu time    0.0000: real time    0.0000

 total amount of memory used by VASP MPI-rank0   504452. kBytes
=======================================================================

   base      :      30000. kBytes
   nonlr-proj:      88926. kBytes
   fftplans  :      12889. kBytes
   grid      :      65608. kBytes
   one-center:       3716. kBytes
   wavefun   :     303313. kBytes
 
  
  
 General timing and accounting informations for this job:
 ========================================================
  
                  Total CPU time used (sec):     5337.317
                            User time (sec):     5328.571
                          System time (sec):        8.747
                         Elapsed time (sec):     5346.461
  
                   Maximum memory used (kb):     1018076.
                   Average memory used (kb):           0.
  
                          Minor page faults:       285316
                          Major page faults:            0
                 Voluntary context switches:         4886
