 vasp.5.4.4.18Apr17-6-g9f103f2a35 (build Jun 30 2017 19:19:18) complex          
  
 executed on         MareNostrum4 date 2022.05.16  10:29:46
 running on   48 total cores
 distrk:  each k-point on   48 cores,    1 groups
 distr:  one band on NCORES_PER_BAND=   1 cores,   48 groups


--------------------------------------------------------------------------------------------------------


 INCAR:
 POTCAR:    PAW_PBE H 15Jun2001                   
 POTCAR:    PAW_PBE C 08Apr2002                   

 ----------------------------------------------------------------------------- 
|                                                                             |
|           W    W    AA    RRRRR   N    N  II  N    N   GGGG   !!!           |
|           W    W   A  A   R    R  NN   N  II  NN   N  G    G  !!!           |
|           W    W  A    A  R    R  N N  N  II  N N  N  G       !!!           |
|           W WW W  AAAAAA  RRRRR   N  N N  II  N  N N  G  GGG   !            |
|           WW  WW  A    A  R   R   N   NN  II  N   NN  G    G                |
|           W    W  A    A  R    R  N    N  II  N    N   GGGG   !!!           |
|                                                                             |
|      For optimal performance we recommend to set                            |
|        NCORE= 4 - approx SQRT( number of cores)                             |
|      NCORE specifies how many cores store one orbital (NPAR=cpu/NCORE).     |
|      This setting can  greatly improve the performance of VASP for DFT.     |
|      The default,   NCORE=1            might be grossly inefficient         |
|      on modern multi-core architectures or massively parallel machines.     |
|      Do your own testing !!!!                                               |
|      Unfortunately you need to use the default for GW and RPA calculations. |
|      (for HF NCORE is supported but not extensively tested yet)             |
|                                                                             |
 ----------------------------------------------------------------------------- 

 POTCAR:    PAW_PBE H 15Jun2001                   
  local pseudopotential read in
  atomic valenz-charges read in
  non local Contribution for L=           0  read in
    real space projection operators read in
  non local Contribution for L=           0  read in
    real space projection operators read in
  non local Contribution for L=           1  read in
    real space projection operators read in
    PAW grid and wavefunctions read in
 
   number of l-projection  operators is LMAX  =           3
   number of lm-projection operators is LMMAX =           5
 
 POTCAR:    PAW_PBE C 08Apr2002                   
  local pseudopotential read in
  partial core-charges read in
  partial kinetic energy density read in
  atomic valenz-charges read in
  non local Contribution for L=           0  read in
    real space projection operators read in
  non local Contribution for L=           0  read in
    real space projection operators read in
  non local Contribution for L=           1  read in
    real space projection operators read in
  non local Contribution for L=           1  read in
    real space projection operators read in
    PAW grid and wavefunctions read in
 
   number of l-projection  operators is LMAX  =           4
   number of lm-projection operators is LMMAX =           8
 
 Optimization of the real space projectors (new method)

 maximal supplied QI-value         = 34.20
 optimisation between [QCUT,QGAM] = [ 10.60, 21.55] = [ 31.48,130.03] Ry 
 Optimized for a Real-space Cutoff    1.23 Angstroem

   l    n(q)    QCUT    max X(q) W(low)/X(q) W(high)/X(q)  e(spline) 
   0      8    10.603    19.460    0.37E-03    0.59E-03    0.23E-06
   0      8    10.603    12.209    0.35E-03    0.56E-03    0.22E-06
   1      7    10.603     4.655    0.70E-04    0.28E-03    0.29E-06
 Optimization of the real space projectors (new method)

 maximal supplied QI-value         = 25.13
 optimisation between [QCUT,QGAM] = [ 10.81, 21.61] = [ 32.71,130.83] Ry 
 Optimized for a Real-space Cutoff    1.23 Angstroem

   l    n(q)    QCUT    max X(q) W(low)/X(q) W(high)/X(q)  e(spline) 
   0      8    10.807   115.676    0.36E-03    0.72E-03    0.24E-06
   0      8    10.807    87.132    0.35E-03    0.71E-03    0.24E-06
   1      7    10.807     4.429    0.19E-03    0.39E-03    0.11E-06
   1      7    10.807     2.733    0.14E-03    0.28E-03    0.13E-06
  PAW_PBE H 15Jun2001                   :
 energy of atom  1       EATOM=  -12.4884
 kinetic energy error for atom=    0.0045 (will be added to EATOM!!)
  PAW_PBE C 08Apr2002                   :
 energy of atom  2       EATOM= -147.1560
 kinetic energy error for atom=    0.0116 (will be added to EATOM!!)
 
 
 POSCAR: H  C                                    
  positions in direct lattice
  velocities in cartesian coordinates
 exchange correlation table for  LEXCH =        8
   RHO(1)=    0.500       N(1)  =     2000
   RHO(2)=  100.500       N(2)  =     4000
 


--------------------------------------------------------------------------------------------------------


 ion  position               nearest neighbor table
   1  0.426  0.757  0.536-  19 1.09
   2  0.515  0.792  0.564-  24 1.09
   3  0.407  0.659  0.546-  20 1.09
   4  0.476  0.598  0.583-  21 1.09
   5  0.584  0.731  0.601-  23 1.09
   6  0.569  0.582  0.603-  25 1.10
   7  0.565  0.617  0.663-  25 1.11
   8  0.640  0.677  0.634-  26 1.10
   9  0.646  0.640  0.574-  26 1.10
  10  0.744  0.629  0.606-  28 1.10
  11  0.756  0.593  0.667-  28 1.10
  12  0.729  0.659  0.669-  28 1.10
  13  0.657  0.594  0.687-  27 1.10
  14  0.615  0.512  0.680-  30 1.09
  15  0.608  0.422  0.639-  31 1.09
  16  0.659  0.401  0.556-  32 1.09
  17  0.717  0.471  0.514-  33 1.09
  18  0.723  0.561  0.555-  34 1.09
  19  0.457  0.730  0.553-   1 1.09  24 1.40  20 1.40
  20  0.446  0.675  0.558-   3 1.09  21 1.40  19 1.40
  21  0.485  0.641  0.579-   4 1.09  20 1.40  22 1.41
  22  0.535  0.660  0.595-  23 1.40  21 1.41  25 1.51
  23  0.545  0.715  0.589-   5 1.09  24 1.40  22 1.40
  24  0.506  0.749  0.568-   2 1.09  19 1.40  23 1.40
  25  0.575  0.622  0.620-   6 1.10   7 1.11  22 1.51  26 1.53
  26  0.634  0.638  0.616-   8 1.10   9 1.10  25 1.53  27 1.54
  27  0.671  0.598  0.645-  13 1.10  29 1.52  28 1.53  26 1.54
  28  0.728  0.621  0.647-  11 1.10  12 1.10  10 1.10  27 1.53
  29  0.669  0.543  0.621-  30 1.40  34 1.40  27 1.52
  30  0.637  0.503  0.643-  14 1.09  31 1.40  29 1.40
  31  0.633  0.452  0.620-  15 1.09  30 1.40  32 1.40
  32  0.662  0.440  0.574-  16 1.09  31 1.40  33 1.40
  33  0.694  0.480  0.550-  17 1.09  34 1.40  32 1.40
  34  0.698  0.530  0.574-  18 1.09  33 1.40  29 1.40
 
  LATTYP: Found a simple cubic cell.
 ALAT       =    25.0000000000
  
  Lattice vectors:
  
 A1 = (  25.0000000000,   0.0000000000,   0.0000000000)
 A2 = (   0.0000000000,  25.0000000000,   0.0000000000)
 A3 = (   0.0000000000,   0.0000000000,  25.0000000000)


Analysis of symmetry for initial positions (statically):
=====================================================================
 Subroutine PRICEL returns:
 Original cell was already a primitive cell.
 

 Routine SETGRP: Setting up the symmetry group for a 
 simple cubic supercell.


 Subroutine GETGRP returns: Found  1 space group operations
 (whereof  1 operations were pure point group operations)
 out of a pool of 48 trial point group operations.


The static configuration has the point symmetry C_1 .


Analysis of symmetry for dynamics (positions and initial velocities):
=====================================================================
 Subroutine PRICEL returns:
 Original cell was already a primitive cell.
 

 Routine SETGRP: Setting up the symmetry group for a 
 simple cubic supercell.


 Subroutine GETGRP returns: Found  1 space group operations
 (whereof  1 operations were pure point group operations)
 out of a pool of 48 trial point group operations.


The dynamic configuration has the point symmetry C_1 .


Analysis of constrained symmetry for selective dynamics:
=====================================================================
 Subroutine PRICEL returns:
 Original cell was already a primitive cell.
 

 Routine SETGRP: Setting up the symmetry group for a 
 simple cubic supercell.


 Subroutine GETGRP returns: Found  1 space group operations
 (whereof  1 operations were pure point group operations)
 out of a pool of 48 trial point group operations.


The constrained configuration has the point symmetry C_1 .


 Subroutine INISYM returns: Found  1 space group operations
 (whereof  1 operations are pure point group operations),
 and found     1 'primitive' translations

 
 
 KPOINTS: K-POINTS                                

Automatic generation of k-mesh.
Space group operators:
 irot       det(A)        alpha          n_x          n_y          n_z        tau_x        tau_y        tau_z
    1     1.000000     0.000000     1.000000     0.000000     0.000000     0.000000     0.000000     0.000000
 
 Subroutine IBZKPT returns following result:
 ===========================================
 
 Found      1 irreducible k-points:
 
 Following reciprocal coordinates:
            Coordinates               Weight
  0.000000  0.000000  0.000000      1.000000
 
 Following cartesian coordinates:
            Coordinates               Weight
  0.000000  0.000000  0.000000      1.000000
 


--------------------------------------------------------------------------------------------------------




 Dimension of arrays:
   k-points           NKPTS =      1   k-points in BZ     NKDIM =      1   number of bands    NBANDS=     96
   number of dos      NEDOS =    301   number of ions     NIONS =     34
   non local maximal  LDIM  =      4   non local SUM 2l+1 LMDIM =      8
   total plane-waves  NPLWV = ******
   max r-space proj   IRMAX =   1408   max aug-charges    IRDMAX=   2272
   dimension x,y,z NGX =   140 NGY =  140 NGZ =  140
   dimension x,y,z NGXF=   280 NGYF=  280 NGZF=  280
   support grid    NGXF=   280 NGYF=  280 NGZF=  280
   ions per type =              18  16
   NGX,Y,Z   is equivalent  to a cutoff of   9.31,  9.31,  9.31 a.u.
   NGXF,Y,Z  is equivalent  to a cutoff of  18.62, 18.62, 18.62 a.u.

 SYSTEM =  x                                       
 POSCAR =  H  C                                    

 Startparameter for this run:
   NWRITE =      0    write-flag & timer
   PREC   = normal    normal or accurate (medium, high low for compatibility)
   ISTART =      0    job   : 0-new  1-cont  2-samecut
   ICHARG =      2    charge: 1-file 2-atom 10-const
   ISPIN  =      1    spin polarized calculation?
   LNONCOLLINEAR =      F non collinear calculations
   LSORBIT =      F    spin-orbit coupling
   INIWAV =      1    electr: 0-lowe 1-rand  2-diag
   LASPH  =      F    aspherical Exc in radial PAW
   METAGGA=      F    non-selfconsistent MetaGGA calc.

 Electronic Relaxation 1
   ENCUT  =  450.0 eV  33.07 Ry    5.75 a.u.  43.24 43.24 43.24*2*pi/ulx,y,z
   ENINI  =  450.0     initial cutoff
   ENAUG  =  644.9 eV  augmentation charge cutoff
   NELM   =     50;   NELMIN=  5; NELMDL= -7     # of ELM steps 
   EDIFF  = 0.1E-04   stopping-criterion for ELM
   LREAL  =      T    real-space projection
   NLSPLINE    = F    spline interpolate recip. space projectors
   LCOMPAT=      F    compatible to vasp.4.4
   GGA_COMPAT  = T    GGA compatible to vasp.4.4-vasp.4.6
   LMAXPAW     = -100 max onsite density
   LMAXMIX     =    2 max onsite mixed and CHGCAR
   VOSKOWN=      0    Vosko Wilk Nusair interpolation
   ROPT   =   -0.00050  -0.00050
 Ionic relaxation
   EDIFFG = -.2E-01   stopping-criterion for IOM
   NSW    =    300    number of steps for IOM
   NBLOCK =      1;   KBLOCK =    300    inner block; outer block 
   IBRION =      2    ionic relax: 0-MD 1-quasi-New 2-CG
   NFREE  =      2    steps in history (QN), initial steepest desc. (CG)
   ISIF   =      2    stress and relaxation
   IWAVPR =     11    prediction:  0-non 1-charg 2-wave 3-comb
   ISYM   =      2    0-nonsym 1-usesym 2-fastsym
   LCORR  =      T    Harris-Foulkes like correction to forces

   POTIM  = 0.1500    time-step for ionic-motion
   TEIN   =    0.0    initial temperature
   TEBEG  =    0.0;   TEEND  =   0.0 temperature during run
   SMASS  =  -3.00    Nose mass-parameter (am)
   estimated Nose-frequenzy (Omega)   =  0.10E-29 period in steps =****** mass=  -0.143E-25a.u.
   SCALEE = 1.0000    scale energy and forces
   NPACO  =    256;   APACO  = 16.0  distance and # of slots for P.C.
   PSTRESS=    0.0 pullay stress

  Mass of Ions in am
   POMASS =   1.00 12.01
  Ionic Valenz
   ZVAL   =   1.00  4.00
  Atomic Wigner-Seitz radii
   RWIGS  =  -1.00 -1.00
  virtual crystal weights 
   VCA    =   1.00  1.00
   NELECT =      82.0000    total number of electrons
   NUPDOWN=      -1.0000    fix difference up-down

 DOS related values:
   EMIN   =  10.00;   EMAX   =-10.00  energy-range for DOS
   EFERMI =   0.00
   ISMEAR =     0;   SIGMA  =   0.03  broadening in eV -4-tet -1-fermi 0-gaus

 Electronic relaxation 2 (details)
   IALGO  =     68    algorithm
   LDIAG  =      T    sub-space diagonalisation (order eigenvalues)
   LSUBROT=      F    optimize rotation matrix (better conditioning)
   TURBO    =      0    0=normal 1=particle mesh
   IRESTART =      0    0=no restart 2=restart with 2 vectors
   NREBOOT  =      0    no. of reboots
   NMIN     =      0    reboot dimension
   EREF     =   0.00    reference energy to select bands
   IMIX   =      4    mixing-type and parameters
     AMIX     =   0.40;   BMIX     =  1.00
     AMIX_MAG =   1.60;   BMIX_MAG =  1.00
     AMIN     =   0.10
     WC   =   100.;   INIMIX=   1;  MIXPRE=   1;  MAXMIX= -45

 Intra band minimization:
   WEIMIN = 0.0010     energy-eigenvalue tresh-hold
   EBREAK =  0.26E-07  absolut break condition
   DEPER  =   0.30     relativ break condition  

   TIME   =   0.40     timestep for ELM

  volume/ion in A,a.u.               =     459.56      3101.26
  Fermi-wavevector in a.u.,A,eV,Ry     =   0.284494  0.537615  1.101211  0.080937
  Thomas-Fermi vector in A             =   1.137340
 
 Write flags
   LWAVE        =      F    write WAVECAR
   LDOWNSAMPLE  =      F    k-point downsampling of WAVECAR
   LCHARG       =      F    write CHGCAR
   LVTOT        =      F    write LOCPOT, total local potential
   LVHAR        =      F    write LOCPOT, Hartree potential only
   LELF         =      F    write electronic localiz. function (ELF)
   LORBIT       =      0    0 simple, 1 ext, 2 COOP (PROOUT), +10 PAW based schemes


 Dipole corrections
   LMONO  =      F    monopole corrections only (constant potential shift)
   LDIPOL =      T    correct potential (dipole corrections)
   IDIPOL =      4    1-x, 2-y, 3-z, 4-all directions 
   EPSILON=  1.0000000 bulk dielectric constant

 Exchange correlation treatment:
   GGA     =    PE    GGA type
   LEXCH   =     8    internal setting for exchange type
   VOSKOWN=      0    Vosko Wilk Nusair interpolation
   LHFCALC =     F    Hartree Fock is set to
   LHFONE  =     F    Hartree Fock one center treatment
   AEXX    =    0.0000 exact exchange contribution

 Linear response parameters
   LEPSILON=     F    determine dielectric tensor
   LRPA    =     F    only Hartree local field effects (RPA)
   LNABLA  =     F    use nabla operator in PAW spheres
   LVEL    =     F    velocity operator in full k-point grid
   LINTERFAST=   F  fast interpolation
   KINTER  =     0    interpolate to denser k-point grid
   CSHIFT  =0.1000    complex shift for real part using Kramers Kronig
   OMEGAMAX=  -1.0    maximum frequency
   DEG_THRESHOLD= 0.2000000E-02 threshold for treating states as degnerate
   RTIME   =   -0.100 relaxation time in fs
  (WPLASMAI=    0.000 imaginary part of plasma frequency in eV, 0.658/RTIME)
   DFIELD  = 0.0000000 0.0000000 0.0000000 field for delta impulse in time
 
 Orbital magnetization related:
   ORBITALMAG=     F  switch on orbital magnetization
   LCHIMAG   =     F  perturbation theory with respect to B field
   DQ        =  0.001000  dq finite difference perturbation B field
   LLRAUG    =     F  two centre corrections for induced B field



--------------------------------------------------------------------------------------------------------


 conjugate gradient relaxation of ions
   using selective dynamics as specified on POSCAR
 charge density and potential will be updated during run
 non-spin polarized calculation
 RMM-DIIS sequential band-by-band and
  variant of blocked Davidson during initial phase
 perform sub-space diagonalisation
    before iterative eigenvector-optimisation
 modified Broyden-mixing scheme, WC =      100.0
 initial mixing is a Kerker type mixing with AMIX =  0.4000 and BMIX =      1.0000
 Hartree-type preconditioning will be used
 using additional bands           55
 real space projection scheme for non local part
 use partial core corrections
 calculate Harris-corrections to forces 
   (improved forces if not selfconsistent)
 use gradient corrections 
 use of overlap-Matrix (Vanderbilt PP)
 Gauss-broadening in eV      SIGMA  =   0.03


--------------------------------------------------------------------------------------------------------


  energy-cutoff  :      450.00
  volume of cell :    15625.00
      direct lattice vectors                 reciprocal lattice vectors
    25.000000000  0.000000000  0.000000000     0.040000000  0.000000000  0.000000000
     0.000000000 25.000000000  0.000000000     0.000000000  0.040000000  0.000000000
     0.000000000  0.000000000 25.000000000     0.000000000  0.000000000  0.040000000

  length of vectors
    25.000000000 25.000000000 25.000000000     0.040000000  0.040000000  0.040000000


 
 k-points in units of 2pi/SCALE and weight: K-POINTS                                
   0.00000000  0.00000000  0.00000000       1.000
 
 k-points in reciprocal lattice and weights: K-POINTS                                
   0.00000000  0.00000000  0.00000000       1.000
 
 position of ions in fractional coordinates (direct lattice) 
   0.42644245  0.75667586  0.53614888
   0.51538301  0.79210554  0.56399685
   0.40710072  0.65910476  0.54591756
   0.47620522  0.59821874  0.58311890
   0.58394297  0.73138278  0.60126137
   0.56886004  0.58200213  0.60266788
   0.56466404  0.61749494  0.66320501
   0.64021330  0.67745059  0.63383110
   0.64565061  0.64035619  0.57374975
   0.74360116  0.62864227  0.60647455
   0.75613160  0.59286168  0.66678186
   0.72903365  0.65895029  0.66907571
   0.65677117  0.59431116  0.68664902
   0.61478471  0.51212901  0.67978132
   0.60825077  0.42160052  0.63912238
   0.65941233  0.40051278  0.55585782
   0.71675587  0.47069800  0.51418967
   0.72291143  0.56079935  0.55506309
   0.45661478  0.72972188  0.55251779
   0.44586600  0.67510851  0.55805488
   0.48474632  0.64095209  0.57904387
   0.53495472  0.66026976  0.59538367
   0.54523695  0.71510432  0.58936050
   0.50649307  0.74949950  0.56818239
   0.57471175  0.62196866  0.62032202
   0.63378057  0.63756946  0.61615189
   0.67149518  0.59818965  0.64517083
   0.72849358  0.62082078  0.64708253
   0.66923451  0.54283921  0.62051360
   0.63715374  0.50289110  0.64336241
   0.63349794  0.45198867  0.62046795
   0.66206587  0.44024279  0.57382782
   0.69414579  0.47971491  0.55049675
   0.69755869  0.53047434  0.57362884
 
 position of ions in cartesian coordinates  (Angst):
  10.66106120 18.91689652 13.40372198
  12.88457517 19.80263854 14.09992131
  10.17751806 16.47761892 13.64793894
  11.90513061 14.95546848 14.57797253
  14.59857420 18.28456951 15.03153423
  14.22150105 14.55005337 15.06669694
  14.11660089 15.43737341 16.58012524
  16.00533240 16.93626479 15.84577753
  16.14126537 16.00890469 14.34374365
  18.59002891 15.71605666 15.16186383
  18.90329002 14.82154210 16.66954656
  18.22584128 16.47375719 16.72689277
  16.41927924 14.85777912 17.16622543
  15.36961765 12.80322529 16.99453303
  15.20626927 10.54001295 15.97805947
  16.48530823 10.01281944 13.89644559
  17.91889676 11.76745009 12.85474174
  18.07278579 14.01998364 13.87657716
  11.41536951 18.24304694 13.81294477
  11.14664998 16.87771283 13.95137196
  12.11865806 16.02380229 14.47609682
  13.37386809 16.50674410 14.88459164
  13.63092366 17.87760793 14.73401249
  12.66232670 18.73748758 14.20455963
  14.36779380 15.54921656 15.50805043
  15.84451436 15.93923648 15.40379737
  16.78737961 14.95474123 16.12927085
  18.21233942 15.52051941 16.17706318
  16.73086269 13.57098035 15.51284009
  15.92884339 12.57227760 16.08406022
  15.83744854 11.29971684 15.51169867
  16.55164668 11.00606964 14.34569542
  17.35364470 11.99287280 13.76241886
  17.43896736 13.26185853 14.34072111
 


--------------------------------------------------------------------------------------------------------


 k-point  1 :   0.0000 0.0000 0.0000  plane waves:  338755

 maximum and minimum number of plane-waves per node :    338755   338755

 maximum number of plane-waves:    338755
 maximum index in each direction: 
   IXMAX=   43   IYMAX=   43   IZMAX=   43
   IXMIN=  -43   IYMIN=  -43   IZMIN=  -43


 serial   3D FFT for wavefunctions
 parallel 3D FFT for charge:
    minimum data exchange during FFTs selected (reduces bandwidth)


 total amount of memory used by VASP MPI-rank0   207723. kBytes
=======================================================================

   base      :      30000. kBytes
   nonlr-proj:       3319. kBytes
   fftplans  :      26902. kBytes
   grid      :     136550. kBytes
   one-center:        104. kBytes
   wavefun   :      10848. kBytes
 
     INWAV:  cpu time    0.0000: real time    0.0000
 Broyden mixing: mesh for mixing (old mesh)
   NGX = 87   NGY = 87   NGZ = 87
  (NGX  =280   NGY  =280   NGZ  =280)
  gives a total of 658503 points

 initial charge density was supplied:
 charge density of overlapping atoms calculated
 number of electron      82.0000000 magnetization 
 keeping initial charge density in first step


--------------------------------------------------------------------------------------------------------


 Maximum index for non-local projection operator         1325
 Maximum index for augmentation-charges          179 (set IRDMAX)


--------------------------------------------------------------------------------------------------------


 First call to EWALD:  gamma=   0.071
 Maximum number of real-space cells 3x 3x 3
 Maximum number of reciprocal cells 3x 3x 3

    FEWALD:  cpu time    0.0019: real time    0.0021


--------------------------------------- Iteration      1(   1)  ---------------------------------------


    POTLOK:  cpu time    0.4925: real time    0.5041
    SETDIJ:  cpu time    0.0062: real time    0.0091
     EDDAV:  cpu time    2.9953: real time    3.0424
       DOS:  cpu time    0.0033: real time    0.0048
    --------------------------------------------
      LOOP:  cpu time    3.4973: real time    3.5604

 eigenvalue-minimisations  :   288
 total energy-change (2. order) : 0.2960436E+03  (-0.1901836E+04)
 number of electron      82.0000000 magnetization 
 augmentation part       82.0000000 magnetization 

 DIPCOR: dipole corrections for dipol
 direction  1 min pos   293, direction  2 min pos   155, direction  3 min pos   219,
 dipolmoment          -0.000719    -45.226013     -0.110269 electrons x Angstroem
 Tr[quadrupol]      -357.450445

 energy correction for charged system         0.000000 eV
 dipol+quadrupol energy correction           -3.948149 eV
 added-field ion interaction        -38.197953 eV  (added to PSCEN)


 Free energy of the ion-electron system (eV)
  ---------------------------------------------------
  alpha Z        PSCENC =       -40.19154839
  Ewald energy   TEWEN  =      8460.90261538
  -Hartree energ DENC   =    -10108.57852785
  -exchange      EXHF   =         0.00000000
  -V(xc)+E(xc)   XCENC  =       250.47558373
  PAW double counting   =      1774.76523593    -1784.03552898
  entropy T*S    EENTRO =        -0.01545924
  eigenvalues    EBANDS =      -836.29897105
  atomic energy  EATOM  =      2579.02021461
  Solvation  Ediel_sol  =         0.00000000
  ---------------------------------------------------
  free energy    TOTEN  =       296.04361413 eV

  energy without entropy =      296.05907337  energy(sigma->0) =      296.05134375


--------------------------------------------------------------------------------------------------------




--------------------------------------- Iteration      1(   2)  ---------------------------------------


     EDDAV:  cpu time    3.7943: real time    3.7983
       DOS:  cpu time    0.0023: real time    0.0023
    --------------------------------------------
      LOOP:  cpu time    3.7966: real time    3.8006

 eigenvalue-minimisations  :   384
 total energy-change (2. order) :-0.4496237E+03  (-0.4402854E+03)
 number of electron      82.0000000 magnetization 
 augmentation part       82.0000000 magnetization 

 DIPCOR: dipole corrections for dipol
 direction  1 min pos   293, direction  2 min pos   155, direction  3 min pos   219,
 dipolmoment          -0.000719    -45.226013     -0.110269 electrons x Angstroem
 Tr[quadrupol]      -357.450445

 energy correction for charged system         0.000000 eV
 dipol+quadrupol energy correction           -3.948149 eV
 added-field ion interaction        -38.197953 eV  (added to PSCEN)


 Free energy of the ion-electron system (eV)
  ---------------------------------------------------
  alpha Z        PSCENC =       -40.19154839
  Ewald energy   TEWEN  =      8460.90261538
  -Hartree energ DENC   =    -10108.57852785
  -exchange      EXHF   =         0.00000000
  -V(xc)+E(xc)   XCENC  =       250.47558373
  PAW double counting   =      1774.76523593    -1784.03552898
  entropy T*S    EENTRO =        -0.00000000
  eigenvalues    EBANDS =     -1285.93817904
  atomic energy  EATOM  =      2579.02021461
  Solvation  Ediel_sol  =         0.00000000
  ---------------------------------------------------
  free energy    TOTEN  =      -153.58013462 eV

  energy without entropy =     -153.58013462  energy(sigma->0) =     -153.58013462


--------------------------------------------------------------------------------------------------------




--------------------------------------- Iteration      1(   3)  ---------------------------------------


     EDDAV:  cpu time    2.9958: real time    3.0020
       DOS:  cpu time    0.0028: real time    0.0028
    --------------------------------------------
      LOOP:  cpu time    2.9986: real time    3.0047

 eigenvalue-minimisations  :   288
 total energy-change (2. order) :-0.7287088E+02  (-0.7247127E+02)
 number of electron      82.0000000 magnetization 
 augmentation part       82.0000000 magnetization 

 DIPCOR: dipole corrections for dipol
 direction  1 min pos   293, direction  2 min pos   155, direction  3 min pos   219,
 dipolmoment          -0.000719    -45.226013     -0.110269 electrons x Angstroem
 Tr[quadrupol]      -357.450445

 energy correction for charged system         0.000000 eV
 dipol+quadrupol energy correction           -3.948149 eV
 added-field ion interaction        -38.197953 eV  (added to PSCEN)


 Free energy of the ion-electron system (eV)
  ---------------------------------------------------
  alpha Z        PSCENC =       -40.19154839
  Ewald energy   TEWEN  =      8460.90261538
  -Hartree energ DENC   =    -10108.57852785
  -exchange      EXHF   =         0.00000000
  -V(xc)+E(xc)   XCENC  =       250.47558373
  PAW double counting   =      1774.76523593    -1784.03552898
  entropy T*S    EENTRO =        -0.00000000
  eigenvalues    EBANDS =     -1358.80905993
  atomic energy  EATOM  =      2579.02021461
  Solvation  Ediel_sol  =         0.00000000
  ---------------------------------------------------
  free energy    TOTEN  =      -226.45101551 eV

  energy without entropy =     -226.45101551  energy(sigma->0) =     -226.45101551


--------------------------------------------------------------------------------------------------------




--------------------------------------- Iteration      1(   4)  ---------------------------------------


     EDDAV:  cpu time    3.7793: real time    3.7843
       DOS:  cpu time    0.0022: real time    0.0022
    --------------------------------------------
      LOOP:  cpu time    3.7816: real time    3.7865

 eigenvalue-minimisations  :   288
 total energy-change (2. order) :-0.3406614E+01  (-0.3396190E+01)
 number of electron      82.0000000 magnetization 
 augmentation part       82.0000000 magnetization 

 DIPCOR: dipole corrections for dipol
 direction  1 min pos   293, direction  2 min pos   155, direction  3 min pos   219,
 dipolmoment          -0.000719    -45.226013     -0.110269 electrons x Angstroem
 Tr[quadrupol]      -357.450445

 energy correction for charged system         0.000000 eV
 dipol+quadrupol energy correction           -3.948149 eV
 added-field ion interaction        -38.197953 eV  (added to PSCEN)


 Free energy of the ion-electron system (eV)
  ---------------------------------------------------
  alpha Z        PSCENC =       -40.19154839
  Ewald energy   TEWEN  =      8460.90261538
  -Hartree energ DENC   =    -10108.57852785
  -exchange      EXHF   =         0.00000000
  -V(xc)+E(xc)   XCENC  =       250.47558373
  PAW double counting   =      1774.76523593    -1784.03552898
  entropy T*S    EENTRO =        -0.00000000
  eigenvalues    EBANDS =     -1362.21567430
  atomic energy  EATOM  =      2579.02021461
  Solvation  Ediel_sol  =         0.00000000
  ---------------------------------------------------
  free energy    TOTEN  =      -229.85762988 eV

  energy without entropy =     -229.85762988  energy(sigma->0) =     -229.85762988


--------------------------------------------------------------------------------------------------------




--------------------------------------- Iteration      1(   5)  ---------------------------------------


     EDDAV:  cpu time    3.0848: real time    3.0890
       DOS:  cpu time    0.0020: real time    0.0020
    --------------------------------------------
      LOOP:  cpu time    3.0868: real time    3.0910

 eigenvalue-minimisations  :   288
 total energy-change (2. order) :-0.1086586E+00  (-0.1085470E+00)
 number of electron      82.0000000 magnetization 
 augmentation part       82.0000000 magnetization 

 DIPCOR: dipole corrections for dipol
 direction  1 min pos   293, direction  2 min pos   155, direction  3 min pos   219,
 dipolmoment          -0.000719    -45.226013     -0.110269 electrons x Angstroem
 Tr[quadrupol]      -357.450445

 energy correction for charged system         0.000000 eV
 dipol+quadrupol energy correction           -3.948149 eV
 added-field ion interaction        -38.197953 eV  (added to PSCEN)


 Free energy of the ion-electron system (eV)
  ---------------------------------------------------
  alpha Z        PSCENC =       -40.19154839
  Ewald energy   TEWEN  =      8460.90261538
  -Hartree energ DENC   =    -10108.57852785
  -exchange      EXHF   =         0.00000000
  -V(xc)+E(xc)   XCENC  =       250.47558373
  PAW double counting   =      1774.76523593    -1784.03552898
  entropy T*S    EENTRO =        -0.00000000
  eigenvalues    EBANDS =     -1362.32433290
  atomic energy  EATOM  =      2579.02021461
  Solvation  Ediel_sol  =         0.00000000
  ---------------------------------------------------
  free energy    TOTEN  =      -229.96628848 eV

  energy without entropy =     -229.96628848  energy(sigma->0) =     -229.96628848


--------------------------------------------------------------------------------------------------------




--------------------------------------- Iteration      1(   6)  ---------------------------------------


     EDDAV:  cpu time    3.3871: real time    3.3926
       DOS:  cpu time    0.0026: real time    0.0026
    --------------------------------------------
      LOOP:  cpu time    3.3896: real time    3.3952

 eigenvalue-minimisations  :   336
 total energy-change (2. order) :-0.5277619E-02  (-0.5276845E-02)
 number of electron      82.0000000 magnetization 
 augmentation part       82.0000000 magnetization 

 DIPCOR: dipole corrections for dipol
 direction  1 min pos   293, direction  2 min pos   155, direction  3 min pos   219,
 dipolmoment          -0.000719    -45.226013     -0.110269 electrons x Angstroem
 Tr[quadrupol]      -357.450445

 energy correction for charged system         0.000000 eV
 dipol+quadrupol energy correction           -3.948149 eV
 added-field ion interaction        -38.197953 eV  (added to PSCEN)


 Free energy of the ion-electron system (eV)
  ---------------------------------------------------
  alpha Z        PSCENC =       -40.19154839
  Ewald energy   TEWEN  =      8460.90261538
  -Hartree energ DENC   =    -10108.57852785
  -exchange      EXHF   =         0.00000000
  -V(xc)+E(xc)   XCENC  =       250.47558373
  PAW double counting   =      1774.76523593    -1784.03552898
  entropy T*S    EENTRO =        -0.00000000
  eigenvalues    EBANDS =     -1362.32961052
  atomic energy  EATOM  =      2579.02021461
  Solvation  Ediel_sol  =         0.00000000
  ---------------------------------------------------
  free energy    TOTEN  =      -229.97156610 eV

  energy without entropy =     -229.97156610  energy(sigma->0) =     -229.97156610


--------------------------------------------------------------------------------------------------------




--------------------------------------- Iteration      1(   7)  ---------------------------------------


     EDDAV:  cpu time    3.5064: real time    3.5095
       DOS:  cpu time    0.0032: real time    0.0032
    CHARGE:  cpu time    0.2661: real time    0.2666
    MIXING:  cpu time    0.0129: real time    0.0134
    --------------------------------------------
      LOOP:  cpu time    3.7886: real time    3.7928

 eigenvalue-minimisations  :   336
 total energy-change (2. order) :-0.1290387E-04  (-0.1290346E-04)
 number of electron      82.0000005 magnetization 
 augmentation part        2.1885283 magnetization 

 DIPCOR: dipole corrections for dipol
 direction  1 min pos   293, direction  2 min pos   155, direction  3 min pos   219,
 dipolmoment          -0.000719    -45.226013     -0.110269 electrons x Angstroem
 Tr[quadrupol]      -357.450445

 energy correction for charged system         0.000000 eV
 dipol+quadrupol energy correction           -3.948149 eV
 added-field ion interaction        -38.197953 eV  (added to PSCEN)


 Broyden mixing:
  rms(total) = 0.23378E+01    rms(broyden)= 0.23373E+01
  rms(prec ) = 0.24928E+01
  weight for this iteration     100.00

 Free energy of the ion-electron system (eV)
  ---------------------------------------------------
  alpha Z        PSCENC =       -40.19154839
  Ewald energy   TEWEN  =      8460.90261538
  -Hartree energ DENC   =    -10108.57852785
  -exchange      EXHF   =         0.00000000
  -V(xc)+E(xc)   XCENC  =       250.47558373
  PAW double counting   =      1774.76523593    -1784.03552898
  entropy T*S    EENTRO =        -0.00000000
  eigenvalues    EBANDS =     -1362.32962343
  atomic energy  EATOM  =      2579.02021461
  Solvation  Ediel_sol  =         0.00000000
  ---------------------------------------------------
  free energy    TOTEN  =      -229.97157900 eV

  energy without entropy =     -229.97157900  energy(sigma->0) =     -229.97157900


--------------------------------------------------------------------------------------------------------




--------------------------------------- Iteration      1(   8)  ---------------------------------------


    POTLOK:  cpu time    0.4557: real time    0.4565
    SETDIJ:  cpu time    0.0021: real time    0.0021
    EDDIAG:  cpu time    0.4197: real time    0.4263
  RMM-DIIS:  cpu time    1.6820: real time    1.6831
    ORTHCH:  cpu time    0.0521: real time    0.0522
       DOS:  cpu time    0.0004: real time    0.0004
    CHARGE:  cpu time    0.2675: real time    0.2680
    MIXING:  cpu time    0.0129: real time    0.0187
    --------------------------------------------
      LOOP:  cpu time    2.8923: real time    2.9073

 eigenvalue-minimisations  :   192
 total energy-change (2. order) : 0.1538155E+02  (-0.3814536E+01)
 number of electron      82.0000005 magnetization 
 augmentation part        2.0485460 magnetization 

 DIPCOR: dipole corrections for dipol
 direction  1 min pos   131, direction  2 min pos    86, direction  3 min pos    66,
 dipolmoment         -28.965935      0.138881     -0.085956 electrons x Angstroem
 Tr[quadrupol]      -433.430870

 energy correction for charged system         0.000000 eV
 dipol+quadrupol energy correction           -1.619657 eV
 added-field ion interaction        -55.028435 eV  (added to PSCEN)


 Broyden mixing:
  rms(total) = 0.13137E+01    rms(broyden)= 0.13135E+01
  rms(prec ) = 0.13851E+01
  weight for this iteration     100.00

 eigenvalues of (default mixing * dielectric matrix)
  average eigenvalue GAMMA=   1.5804
  1.5804

 Free energy of the ion-electron system (eV)
  ---------------------------------------------------
  alpha Z        PSCENC =       -54.69353787
  Ewald energy   TEWEN  =      8460.90261538
  -Hartree energ DENC   =    -10277.91577223
  -exchange      EXHF   =         0.00000000
  -V(xc)+E(xc)   XCENC  =       258.18198773
  PAW double counting   =      3323.60508226    -3334.53043786
  entropy T*S    EENTRO =        -0.00000000
  eigenvalues    EBANDS =     -1169.16018071
  atomic energy  EATOM  =      2579.02021461
  Solvation  Ediel_sol  =         0.00000000
  ---------------------------------------------------
  free energy    TOTEN  =      -214.59002869 eV

  energy without entropy =     -214.59002869  energy(sigma->0) =     -214.59002869


--------------------------------------------------------------------------------------------------------




--------------------------------------- Iteration      1(   9)  ---------------------------------------


    POTLOK:  cpu time    0.4564: real time    0.4574
    SETDIJ:  cpu time    0.0020: real time    0.0020
    EDDIAG:  cpu time    0.4186: real time    0.4189
  RMM-DIIS:  cpu time    1.6584: real time    1.6599
    ORTHCH:  cpu time    0.0524: real time    0.0524
       DOS:  cpu time    0.0005: real time    0.0005
    CHARGE:  cpu time    0.2685: real time    0.2687
    MIXING:  cpu time    0.0133: real time    0.0134
    --------------------------------------------
      LOOP:  cpu time    2.8700: real time    2.8731

 eigenvalue-minimisations  :   192
 total energy-change (2. order) : 0.2576253E+01  (-0.1926296E+01)
 number of electron      82.0000001 magnetization 
 augmentation part        1.9428355 magnetization 

 DIPCOR: dipole corrections for dipol
 direction  1 min pos    52, direction  2 min pos    47, direction  3 min pos    47,
 dipolmoment          -0.221448     -0.128111     -0.105237 electrons x Angstroem
 Tr[quadrupol]        63.442884

 energy correction for charged system         0.000000 eV
 dipol+quadrupol energy correction           -0.000148 eV
 added-field ion interaction         -0.259722 eV  (added to PSCEN)


 Broyden mixing:
  rms(total) = 0.65112E+00    rms(broyden)= 0.65086E+00
  rms(prec ) = 0.68955E+00
  weight for this iteration     100.00

 eigenvalues of (default mixing * dielectric matrix)
  average eigenvalue GAMMA=   1.3472
  0.8868  1.8076

 Free energy of the ion-electron system (eV)
  ---------------------------------------------------
  alpha Z        PSCENC =         1.69468474
  Ewald energy   TEWEN  =      8460.90261538
  -Hartree energ DENC   =    -10416.11759092
  -exchange      EXHF   =         0.00000000
  -V(xc)+E(xc)   XCENC  =       265.14688606
  PAW double counting   =      5335.94743185    -5347.68082971
  entropy T*S    EENTRO =        -0.00000000
  eigenvalues    EBANDS =     -1090.92718780
  atomic energy  EATOM  =      2579.02021461
  Solvation  Ediel_sol  =         0.00000000
  ---------------------------------------------------
  free energy    TOTEN  =      -212.01377578 eV

  energy without entropy =     -212.01377578  energy(sigma->0) =     -212.01377578


--------------------------------------------------------------------------------------------------------




--------------------------------------- Iteration      1(  10)  ---------------------------------------


    POTLOK:  cpu time    0.4577: real time    0.4585
    SETDIJ:  cpu time    0.0021: real time    0.0021
    EDDIAG:  cpu time    0.4188: real time    0.4189
  RMM-DIIS:  cpu time    1.6699: real time    1.6712
    ORTHCH:  cpu time    0.0521: real time    0.0521
       DOS:  cpu time    0.0003: real time    0.0003
    CHARGE:  cpu time    0.2669: real time    0.2670
    MIXING:  cpu time    0.0147: real time    0.0147
    --------------------------------------------
      LOOP:  cpu time    2.8825: real time    2.8849

 eigenvalue-minimisations  :   192
 total energy-change (2. order) : 0.3327518E+01  (-0.8189850E+00)
 number of electron      82.0000003 magnetization 
 augmentation part        1.9200138 magnetization 

 DIPCOR: dipole corrections for dipol
 direction  1 min pos   171, direction  2 min pos   106, direction  3 min pos    77,
 dipolmoment          41.140888      3.953511     -0.275176 electrons x Angstroem
 Tr[quadrupol]      -406.086038

 energy correction for charged system         0.000000 eV
 dipol+quadrupol energy correction           -3.297404 eV
 added-field ion interaction         33.786502 eV  (added to PSCEN)


 Broyden mixing:
  rms(total) = 0.37365E+00    rms(broyden)= 0.37357E+00
  rms(prec ) = 0.39754E+00
  weight for this iteration     100.00

 eigenvalues of (default mixing * dielectric matrix)
  average eigenvalue GAMMA=   1.3723
  2.0057  1.3589  0.7523

 Free energy of the ion-electron system (eV)
  ---------------------------------------------------
  alpha Z        PSCENC =        32.44365236
  Ewald energy   TEWEN  =      8460.90261538
  -Hartree energ DENC   =    -10451.45742866
  -exchange      EXHF   =         0.00000000
  -V(xc)+E(xc)   XCENC  =       266.87454677
  PAW double counting   =      6063.11222801    -6074.80844059
  entropy T*S    EENTRO =        -0.00000000
  eigenvalues    EBANDS =     -1084.77364517
  atomic energy  EATOM  =      2579.02021461
  Solvation  Ediel_sol  =         0.00000000
  ---------------------------------------------------
  free energy    TOTEN  =      -208.68625730 eV

  energy without entropy =     -208.68625730  energy(sigma->0) =     -208.68625730


--------------------------------------------------------------------------------------------------------




--------------------------------------- Iteration      1(  11)  ---------------------------------------


    POTLOK:  cpu time    0.4494: real time    0.4504
    SETDIJ:  cpu time    0.0018: real time    0.0018
    EDDIAG:  cpu time    0.4181: real time    0.4184
  RMM-DIIS:  cpu time    1.6604: real time    1.6619
    ORTHCH:  cpu time    0.0518: real time    0.0518
       DOS:  cpu time    0.0003: real time    0.0003
    CHARGE:  cpu time    0.2693: real time    0.2694
    MIXING:  cpu time    0.0146: real time    0.0145
    --------------------------------------------
      LOOP:  cpu time    2.8657: real time    2.8686

 eigenvalue-minimisations  :   192
 total energy-change (2. order) :-0.2220272E+01  (-0.8102224E+00)
 number of electron      82.0000002 magnetization 
 augmentation part        1.9040235 magnetization 

 DIPCOR: dipole corrections for dipol
 direction  1 min pos    47, direction  2 min pos    44, direction  3 min pos    46,
 dipolmoment          -0.071631     -0.116488     -0.121448 electrons x Angstroem
 Tr[quadrupol]        57.649629

 energy correction for charged system         0.000000 eV
 dipol+quadrupol energy correction           -0.000065 eV
 added-field ion interaction         -0.143525 eV  (added to PSCEN)


 Broyden mixing:
  rms(total) = 0.19335E+00    rms(broyden)= 0.19329E+00
  rms(prec ) = 0.21117E+00
  weight for this iteration     100.00

 eigenvalues of (default mixing * dielectric matrix)
  average eigenvalue GAMMA=   1.3077
  2.0979  1.7964  0.6682  0.6682

 Free energy of the ion-electron system (eV)
  ---------------------------------------------------
  alpha Z        PSCENC =         1.81096419
  Ewald energy   TEWEN  =      8460.90261538
  -Hartree energ DENC   =    -10476.92775253
  -exchange      EXHF   =         0.00000000
  -V(xc)+E(xc)   XCENC  =       267.94680718
  PAW double counting   =      6583.36628724    -6594.91387719
  entropy T*S    EENTRO =        -0.00000000
  eigenvalues    EBANDS =     -1032.11178807
  atomic energy  EATOM  =      2579.02021461
  Solvation  Ediel_sol  =         0.00000000
  ---------------------------------------------------
  free energy    TOTEN  =      -210.90652918 eV

  energy without entropy =     -210.90652918  energy(sigma->0) =     -210.90652918


--------------------------------------------------------------------------------------------------------




--------------------------------------- Iteration      1(  12)  ---------------------------------------


    POTLOK:  cpu time    0.4514: real time    0.4525
    SETDIJ:  cpu time    0.0025: real time    0.0024
    EDDIAG:  cpu time    0.4311: real time    0.4312
  RMM-DIIS:  cpu time    1.7936: real time    1.7954
    ORTHCH:  cpu time    0.0520: real time    0.0521
       DOS:  cpu time    0.0004: real time    0.0004
    CHARGE:  cpu time    0.2680: real time    0.2681
    MIXING:  cpu time    0.0145: real time    0.0145
    --------------------------------------------
      LOOP:  cpu time    3.0135: real time    3.0165

 eigenvalue-minimisations  :   193
 total energy-change (2. order) : 0.9129267E-01  (-0.2960518E-01)
 number of electron      82.0000002 magnetization 
 augmentation part        1.9038758 magnetization 

 DIPCOR: dipole corrections for dipol
 direction  1 min pos    32, direction  2 min pos    36, direction  3 min pos    42,
 dipolmoment           0.027077     -0.065530     -0.110132 electrons x Angstroem
 Tr[quadrupol]        55.700265

 energy correction for charged system         0.000000 eV
 dipol+quadrupol energy correction           -0.000033 eV
 added-field ion interaction         -0.052122 eV  (added to PSCEN)


 Broyden mixing:
  rms(total) = 0.13884E+00    rms(broyden)= 0.13882E+00
  rms(prec ) = 0.15573E+00
  weight for this iteration     100.00

 eigenvalues of (default mixing * dielectric matrix)
  average eigenvalue GAMMA=   1.3386
  2.1346  1.6126  1.1058  1.1058  0.7344

 Free energy of the ion-electron system (eV)
  ---------------------------------------------------
  alpha Z        PSCENC =         1.90239915
  Ewald energy   TEWEN  =      8460.90261538
  -Hartree energ DENC   =    -10487.04999331
  -exchange      EXHF   =         0.00000000
  -V(xc)+E(xc)   XCENC  =       268.25858153
  PAW double counting   =      6771.01466296    -6782.43830099
  entropy T*S    EENTRO =        -0.00000000
  eigenvalues    EBANDS =     -1022.42541584
  atomic energy  EATOM  =      2579.02021461
  Solvation  Ediel_sol  =         0.00000000
  ---------------------------------------------------
  free energy    TOTEN  =      -210.81523651 eV

  energy without entropy =     -210.81523651  energy(sigma->0) =     -210.81523651


--------------------------------------------------------------------------------------------------------




--------------------------------------- Iteration      1(  13)  ---------------------------------------


    POTLOK:  cpu time    0.4513: real time    0.4524
    SETDIJ:  cpu time    0.0021: real time    0.0021
    EDDIAG:  cpu time    0.4193: real time    0.4197
  RMM-DIIS:  cpu time    1.6544: real time    1.6560
    ORTHCH:  cpu time    0.0510: real time    0.0510
       DOS:  cpu time    0.0004: real time    0.0004
    CHARGE:  cpu time    0.2677: real time    0.2679
    MIXING:  cpu time    0.0147: real time    0.0148
    --------------------------------------------
      LOOP:  cpu time    2.8610: real time    2.8644

 eigenvalue-minimisations  :   192
 total energy-change (2. order) : 0.9230218E-01  (-0.2128499E-01)
 number of electron      82.0000002 magnetization 
 augmentation part        1.9029791 magnetization 

 DIPCOR: dipole corrections for dipol
 direction  1 min pos    30, direction  2 min pos    35, direction  3 min pos    41,
 dipolmoment           0.011533     -0.054280     -0.107309 electrons x Angstroem
 Tr[quadrupol]        54.054073

 energy correction for charged system         0.000000 eV
 dipol+quadrupol energy correction           -0.000028 eV
 added-field ion interaction         -0.046114 eV  (added to PSCEN)


 Broyden mixing:
  rms(total) = 0.48136E-01    rms(broyden)= 0.48124E-01
  rms(prec ) = 0.62628E-01
  weight for this iteration     100.00

 eigenvalues of (default mixing * dielectric matrix)
  average eigenvalue GAMMA=   1.3045
  2.0206  2.0206  1.1587  1.1587  0.7412  0.7271

 Free energy of the ion-electron system (eV)
  ---------------------------------------------------
  alpha Z        PSCENC =         1.90841222
  Ewald energy   TEWEN  =      8460.90261538
  -Hartree energ DENC   =    -10497.53712397
  -exchange      EXHF   =         0.00000000
  -V(xc)+E(xc)   XCENC  =       268.45469771
  PAW double counting   =      6790.72645391    -6802.12764027
  entropy T*S    EENTRO =        -0.00000000
  eigenvalues    EBANDS =     -1012.07056391
  atomic energy  EATOM  =      2579.02021461
  Solvation  Ediel_sol  =         0.00000000
  ---------------------------------------------------
  free energy    TOTEN  =      -210.72293433 eV

  energy without entropy =     -210.72293433  energy(sigma->0) =     -210.72293433


--------------------------------------------------------------------------------------------------------




--------------------------------------- Iteration      1(  14)  ---------------------------------------


    POTLOK:  cpu time    0.4541: real time    0.4546
    SETDIJ:  cpu time    0.0017: real time    0.0017
    EDDIAG:  cpu time    0.4204: real time    0.4205
  RMM-DIIS:  cpu time    1.8004: real time    1.8016
    ORTHCH:  cpu time    0.0512: real time    0.0512
       DOS:  cpu time    0.0002: real time    0.0002
    CHARGE:  cpu time    0.2965: real time    0.2967
    MIXING:  cpu time    0.0153: real time    0.0154
    --------------------------------------------
      LOOP:  cpu time    3.0399: real time    3.0419

 eigenvalue-minimisations  :   194
 total energy-change (2. order) : 0.8203686E-02  (-0.3555240E-02)
 number of electron      82.0000002 magnetization 
 augmentation part        1.9029123 magnetization 

 DIPCOR: dipole corrections for dipol
 direction  1 min pos    29, direction  2 min pos    35, direction  3 min pos    41,
 dipolmoment           0.000567     -0.048169     -0.108343 electrons x Angstroem
 Tr[quadrupol]        52.936307

 energy correction for charged system         0.000000 eV
 dipol+quadrupol energy correction           -0.000027 eV
 added-field ion interaction         -0.045667 eV  (added to PSCEN)


 Broyden mixing:
  rms(total) = 0.29276E-01    rms(broyden)= 0.29269E-01
  rms(prec ) = 0.42749E-01
  weight for this iteration     100.00

 eigenvalues of (default mixing * dielectric matrix)
  average eigenvalue GAMMA=   1.4943
  2.2325  2.2325  1.7098  1.7098  0.7323  0.9217  0.9217

 Free energy of the ion-electron system (eV)
  ---------------------------------------------------
  alpha Z        PSCENC =         1.90886035
  Ewald energy   TEWEN  =      8460.90261538
  -Hartree energ DENC   =    -10503.60638484
  -exchange      EXHF   =         0.00000000
  -V(xc)+E(xc)   XCENC  =       268.51338282
  PAW double counting   =      6777.85465746    -6789.23595692
  entropy T*S    EENTRO =        -0.00000000
  eigenvalues    EBANDS =     -1006.07211950
  atomic energy  EATOM  =      2579.02021461
  Solvation  Ediel_sol  =         0.00000000
  ---------------------------------------------------
  free energy    TOTEN  =      -210.71473064 eV

  energy without entropy =     -210.71473064  energy(sigma->0) =     -210.71473064


--------------------------------------------------------------------------------------------------------




--------------------------------------- Iteration      1(  15)  ---------------------------------------


    POTLOK:  cpu time    0.4534: real time    0.4545
    SETDIJ:  cpu time    0.0018: real time    0.0018
    EDDIAG:  cpu time    0.4190: real time    0.4255
  RMM-DIIS:  cpu time    1.6570: real time    1.6584
    ORTHCH:  cpu time    0.0540: real time    0.0540
       DOS:  cpu time    0.0003: real time    0.0003
    CHARGE:  cpu time    0.2666: real time    0.2676
    MIXING:  cpu time    0.0172: real time    0.0172
    --------------------------------------------
      LOOP:  cpu time    2.8692: real time    2.8793

 eigenvalue-minimisations  :   192
 total energy-change (2. order) : 0.2673158E-02  (-0.2364344E-02)
 number of electron      82.0000002 magnetization 
 augmentation part        1.9022104 magnetization 

 DIPCOR: dipole corrections for dipol
 direction  1 min pos    29, direction  2 min pos    34, direction  3 min pos    40,
 dipolmoment          -0.027633     -0.027496     -0.106604 electrons x Angstroem
 Tr[quadrupol]        50.788323

 energy correction for charged system         0.000000 eV
 dipol+quadrupol energy correction           -0.000025 eV
 added-field ion interaction         -0.037550 eV  (added to PSCEN)


 Broyden mixing:
  rms(total) = 0.23465E-01    rms(broyden)= 0.23461E-01
  rms(prec ) = 0.30943E-01
  weight for this iteration     100.00

 eigenvalues of (default mixing * dielectric matrix)
  average eigenvalue GAMMA=   1.5187
  2.7185  2.7185  1.6356  1.2518  1.2518  0.7457  0.9501  0.8774

 Free energy of the ion-electron system (eV)
  ---------------------------------------------------
  alpha Z        PSCENC =         1.91697879
  Ewald energy   TEWEN  =      8460.90261538
  -Hartree energ DENC   =    -10515.89423161
  -exchange      EXHF   =         0.00000000
  -V(xc)+E(xc)   XCENC  =       268.66302487
  PAW double counting   =      6763.52515578    -6774.89006086
  entropy T*S    EENTRO =        -0.00000000
  eigenvalues    EBANDS =      -993.95575445
  atomic energy  EATOM  =      2579.02021461
  Solvation  Ediel_sol  =         0.00000000
  ---------------------------------------------------
  free energy    TOTEN  =      -210.71205748 eV

  energy without entropy =     -210.71205748  energy(sigma->0) =     -210.71205748


--------------------------------------------------------------------------------------------------------




--------------------------------------- Iteration      1(  16)  ---------------------------------------


    POTLOK:  cpu time    0.4536: real time    0.4540
    SETDIJ:  cpu time    0.0018: real time    0.0018
    EDDIAG:  cpu time    0.4211: real time    0.4213
  RMM-DIIS:  cpu time    1.6527: real time    1.6564
    ORTHCH:  cpu time    0.0506: real time    0.0508
       DOS:  cpu time    0.0005: real time    0.0005
    CHARGE:  cpu time    0.2702: real time    0.2705
    MIXING:  cpu time    0.0165: real time    0.0166
    --------------------------------------------
      LOOP:  cpu time    2.8670: real time    2.8719

 eigenvalue-minimisations  :   192
 total energy-change (2. order) : 0.7978660E-03  (-0.3251834E-02)
 number of electron      82.0000002 magnetization 
 augmentation part        1.9009634 magnetization 

 DIPCOR: dipole corrections for dipol
 direction  1 min pos    29, direction  2 min pos    34, direction  3 min pos    40,
 dipolmoment          -0.052844     -0.017139     -0.108879 electrons x Angstroem
 Tr[quadrupol]        49.414533

 energy correction for charged system         0.000000 eV
 dipol+quadrupol energy correction           -0.000029 eV
 added-field ion interaction         -0.036561 eV  (added to PSCEN)


 Broyden mixing:
  rms(total) = 0.20374E-01    rms(broyden)= 0.20370E-01
  rms(prec ) = 0.24644E-01
  weight for this iteration     100.00

 eigenvalues of (default mixing * dielectric matrix)
  average eigenvalue GAMMA=   1.6816
  3.8311  2.4916  1.9326  1.9326  1.2112  1.2112  0.7482  0.9383  0.8376

 Free energy of the ion-electron system (eV)
  ---------------------------------------------------
  alpha Z        PSCENC =         1.91796442
  Ewald energy   TEWEN  =      8460.90261538
  -Hartree energ DENC   =    -10524.17601890
  -exchange      EXHF   =         0.00000000
  -V(xc)+E(xc)   XCENC  =       268.77546865
  PAW double counting   =      6751.04103448    -6762.40837920
  entropy T*S    EENTRO =        -0.00000000
  eigenvalues    EBANDS =      -985.78415905
  atomic energy  EATOM  =      2579.02021461
  Solvation  Ediel_sol  =         0.00000000
  ---------------------------------------------------
  free energy    TOTEN  =      -210.71125962 eV

  energy without entropy =     -210.71125962  energy(sigma->0) =     -210.71125962


--------------------------------------------------------------------------------------------------------




--------------------------------------- Iteration      1(  17)  ---------------------------------------


    POTLOK:  cpu time    0.4548: real time    0.4554
    SETDIJ:  cpu time    0.0016: real time    0.0016
    EDDIAG:  cpu time    0.4228: real time    0.4232
  RMM-DIIS:  cpu time    1.7626: real time    1.7664
    ORTHCH:  cpu time    0.0752: real time    0.0753
       DOS:  cpu time    0.0002: real time    0.0002
    CHARGE:  cpu time    0.2705: real time    0.2709
    MIXING:  cpu time    0.0173: real time    0.0173
    --------------------------------------------
      LOOP:  cpu time    3.0051: real time    3.0104

 eigenvalue-minimisations  :   192
 total energy-change (2. order) :-0.1120431E-01  (-0.5111942E-03)
 number of electron      82.0000002 magnetization 
 augmentation part        1.9003921 magnetization 

 DIPCOR: dipole corrections for dipol
 direction  1 min pos    29, direction  2 min pos    34, direction  3 min pos    40,
 dipolmoment          -0.067528     -0.000507     -0.110757 electrons x Angstroem
 Tr[quadrupol]        48.054034

 energy correction for charged system         0.000000 eV
 dipol+quadrupol energy correction           -0.000032 eV
 added-field ion interaction         -0.034751 eV  (added to PSCEN)


 Broyden mixing:
  rms(total) = 0.15570E-01    rms(broyden)= 0.15569E-01
  rms(prec ) = 0.17649E-01
  weight for this iteration     100.00

 eigenvalues of (default mixing * dielectric matrix)
  average eigenvalue GAMMA=   1.6502
  4.2111  2.5011  1.7274  1.7274  1.1690  1.1690  1.4526  0.7491  0.8415  0.9544

 Free energy of the ion-electron system (eV)
  ---------------------------------------------------
  alpha Z        PSCENC =         1.91977055
  Ewald energy   TEWEN  =      8460.90261538
  -Hartree energ DENC   =    -10531.16416401
  -exchange      EXHF   =         0.00000000
  -V(xc)+E(xc)   XCENC  =       268.83347512
  PAW double counting   =      6748.01884000    -6759.38053704
  entropy T*S    EENTRO =        -0.00000000
  eigenvalues    EBANDS =      -978.87267853
  atomic energy  EATOM  =      2579.02021461
  Solvation  Ediel_sol  =         0.00000000
  ---------------------------------------------------
  free energy    TOTEN  =      -210.72246392 eV

  energy without entropy =     -210.72246392  energy(sigma->0) =     -210.72246392


--------------------------------------------------------------------------------------------------------




--------------------------------------- Iteration      1(  18)  ---------------------------------------


    POTLOK:  cpu time    0.4565: real time    0.4576
    SETDIJ:  cpu time    0.0019: real time    0.0019
    EDDIAG:  cpu time    0.4224: real time    0.4228
  RMM-DIIS:  cpu time    1.6633: real time    1.6659
    ORTHCH:  cpu time    0.0507: real time    0.0508
       DOS:  cpu time    0.0003: real time    0.0003
    CHARGE:  cpu time    0.2680: real time    0.2680
    MIXING:  cpu time    0.0175: real time    0.0227
    --------------------------------------------
      LOOP:  cpu time    2.8806: real time    2.8901

 eigenvalue-minimisations  :   192
 total energy-change (2. order) :-0.4825922E-02  (-0.5659269E-03)
 number of electron      82.0000002 magnetization 
 augmentation part        1.8998700 magnetization 

 DIPCOR: dipole corrections for dipol
 direction  1 min pos    30, direction  2 min pos    35, direction  3 min pos    40,
 dipolmoment          -0.074820      0.002103     -0.109096 electrons x Angstroem
 Tr[quadrupol]        47.721152

 energy correction for charged system         0.000000 eV
 dipol+quadrupol energy correction           -0.000034 eV
 added-field ion interaction         -0.035825 eV  (added to PSCEN)


 Broyden mixing:
  rms(total) = 0.40706E-02    rms(broyden)= 0.40674E-02
  rms(prec ) = 0.61674E-02
  weight for this iteration     100.00

 eigenvalues of (default mixing * dielectric matrix)
  average eigenvalue GAMMA=   1.8569
  5.8800  2.7426  2.1362  2.1362  1.6175  1.1881  1.1881  0.7480  0.8529  1.0068
  0.9298

 Free energy of the ion-electron system (eV)
  ---------------------------------------------------
  alpha Z        PSCENC =         1.91869484
  Ewald energy   TEWEN  =      8460.90261538
  -Hartree energ DENC   =    -10532.94421646
  -exchange      EXHF   =         0.00000000
  -V(xc)+E(xc)   XCENC  =       268.84571003
  PAW double counting   =      6745.18479080    -6756.55055209
  entropy T*S    EENTRO =        -0.00000000
  eigenvalues    EBANDS =      -977.10454696
  atomic energy  EATOM  =      2579.02021461
  Solvation  Ediel_sol  =         0.00000000
  ---------------------------------------------------
  free energy    TOTEN  =      -210.72728985 eV

  energy without entropy =     -210.72728985  energy(sigma->0) =     -210.72728985


--------------------------------------------------------------------------------------------------------




--------------------------------------- Iteration      1(  19)  ---------------------------------------


    POTLOK:  cpu time    0.4568: real time    0.4577
    SETDIJ:  cpu time    0.0018: real time    0.0018
    EDDIAG:  cpu time    0.4166: real time    0.4174
  RMM-DIIS:  cpu time    1.8082: real time    1.8124
    ORTHCH:  cpu time    0.0504: real time    0.0504
       DOS:  cpu time    0.0005: real time    0.0005
    CHARGE:  cpu time    0.2711: real time    0.2712
    MIXING:  cpu time    0.0195: real time    0.0195
    --------------------------------------------
      LOOP:  cpu time    3.0249: real time    3.0309

 eigenvalue-minimisations  :   194
 total energy-change (2. order) :-0.1000469E-01  (-0.1571076E-03)
 number of electron      82.0000002 magnetization 
 augmentation part        1.8997877 magnetization 

 DIPCOR: dipole corrections for dipol
 direction  1 min pos    30, direction  2 min pos    35, direction  3 min pos    39,
 dipolmoment          -0.078841      0.010629     -0.099841 electrons x Angstroem
 Tr[quadrupol]        47.197844

 energy correction for charged system         0.000000 eV
 dipol+quadrupol energy correction           -0.000031 eV
 added-field ion interaction         -0.028712 eV  (added to PSCEN)


 Broyden mixing:
  rms(total) = 0.46973E-02    rms(broyden)= 0.46963E-02
  rms(prec ) = 0.54592E-02
  weight for this iteration     100.00

 eigenvalues of (default mixing * dielectric matrix)
  average eigenvalue GAMMA=   1.8151
  6.0537  2.9033  2.0988  2.0988  1.1471  1.1471  1.3922  1.3922  0.7464  0.8776
  0.8776  1.0465

 Free energy of the ion-electron system (eV)
  ---------------------------------------------------
  alpha Z        PSCENC =         1.92581079
  Ewald energy   TEWEN  =      8460.90261538
  -Hartree energ DENC   =    -10534.81288639
  -exchange      EXHF   =         0.00000000
  -V(xc)+E(xc)   XCENC  =       268.83433176
  PAW double counting   =      6740.66010909    -6752.02340323
  entropy T*S    EENTRO =        -0.00000000
  eigenvalues    EBANDS =      -975.24408655
  atomic energy  EATOM  =      2579.02021461
  Solvation  Ediel_sol  =         0.00000000
  ---------------------------------------------------
  free energy    TOTEN  =      -210.73729454 eV

  energy without entropy =     -210.73729454  energy(sigma->0) =     -210.73729454


--------------------------------------------------------------------------------------------------------




--------------------------------------- Iteration      1(  20)  ---------------------------------------


    POTLOK:  cpu time    0.4584: real time    0.4597
    SETDIJ:  cpu time    0.0018: real time    0.0018
    EDDIAG:  cpu time    0.4175: real time    0.4182
  RMM-DIIS:  cpu time    1.6568: real time    1.6588
    ORTHCH:  cpu time    0.0507: real time    0.0507
       DOS:  cpu time    0.0004: real time    0.0004
    CHARGE:  cpu time    0.2682: real time    0.2684
    MIXING:  cpu time    0.0191: real time    0.0191
    --------------------------------------------
      LOOP:  cpu time    2.8729: real time    2.8772

 eigenvalue-minimisations  :   189
 total energy-change (2. order) :-0.3285092E-02  (-0.3422187E-04)
 number of electron      82.0000002 magnetization 
 augmentation part        1.8996949 magnetization 

 DIPCOR: dipole corrections for dipol
 direction  1 min pos    30, direction  2 min pos    35, direction  3 min pos    39,
 dipolmoment          -0.078580      0.012697     -0.096318 electrons x Angstroem
 Tr[quadrupol]        47.070989

 energy correction for charged system         0.000000 eV
 dipol+quadrupol energy correction           -0.000030 eV
 added-field ion interaction         -0.027341 eV  (added to PSCEN)


 Broyden mixing:
  rms(total) = 0.26632E-02    rms(broyden)= 0.26630E-02
  rms(prec ) = 0.32644E-02
  weight for this iteration     100.00

 eigenvalues of (default mixing * dielectric matrix)
  average eigenvalue GAMMA=   1.9653
  7.0513  3.4382  2.3406  2.1638  2.1638  1.1956  1.1956  1.4188  1.1099  0.7466
  0.8718  0.8718  0.9813

 Free energy of the ion-electron system (eV)
  ---------------------------------------------------
  alpha Z        PSCENC =         1.92718238
  Ewald energy   TEWEN  =      8460.90261538
  -Hartree energ DENC   =    -10535.29039525
  -exchange      EXHF   =         0.00000000
  -V(xc)+E(xc)   XCENC  =       268.83609206
  PAW double counting   =      6744.14998897    -6755.51299771
  entropy T*S    EENTRO =        -0.00000000
  eigenvalues    EBANDS =      -974.77328009
  atomic energy  EATOM  =      2579.02021461
  Solvation  Ediel_sol  =         0.00000000
  ---------------------------------------------------
  free energy    TOTEN  =      -210.74057963 eV

  energy without entropy =     -210.74057963  energy(sigma->0) =     -210.74057963


--------------------------------------------------------------------------------------------------------




--------------------------------------- Iteration      1(  21)  ---------------------------------------


    POTLOK:  cpu time    0.4572: real time    0.4577
    SETDIJ:  cpu time    0.0017: real time    0.0016
    EDDIAG:  cpu time    0.4189: real time    0.4192
  RMM-DIIS:  cpu time    1.6643: real time    1.6650
    ORTHCH:  cpu time    0.0509: real time    0.0509
       DOS:  cpu time    0.0003: real time    0.0003
    CHARGE:  cpu time    0.2620: real time    0.2621
    MIXING:  cpu time    0.0204: real time    0.0204
    --------------------------------------------
      LOOP:  cpu time    2.8755: real time    2.8772

 eigenvalue-minimisations  :   191
 total energy-change (2. order) :-0.4442658E-02  (-0.7244406E-04)
 number of electron      82.0000002 magnetization 
 augmentation part        1.8996285 magnetization 

 DIPCOR: dipole corrections for dipol
 direction  1 min pos    31, direction  2 min pos    35, direction  3 min pos    39,
 dipolmoment          -0.079035      0.014217     -0.087658 electrons x Angstroem
 Tr[quadrupol]        46.939511

 energy correction for charged system         0.000000 eV
 dipol+quadrupol energy correction           -0.000027 eV
 added-field ion interaction         -0.026798 eV  (added to PSCEN)


 Broyden mixing:
  rms(total) = 0.19629E-02    rms(broyden)= 0.19624E-02
  rms(prec ) = 0.22091E-02
  weight for this iteration     100.00

 eigenvalues of (default mixing * dielectric matrix)
  average eigenvalue GAMMA=   1.9457
  7.3027  3.7478  2.4721  2.0418  2.0418  1.2113  1.2113  1.2793  1.2793  0.7469
  1.1566  0.8602  0.9443  0.9443

 Free energy of the ion-electron system (eV)
  ---------------------------------------------------
  alpha Z        PSCENC =         1.92772867
  Ewald energy   TEWEN  =      8460.90261538
  -Hartree energ DENC   =    -10535.64655627
  -exchange      EXHF   =         0.00000000
  -V(xc)+E(xc)   XCENC  =       268.82830256
  PAW double counting   =      6743.97458991    -6755.33814024
  entropy T*S    EENTRO =        -0.00000000
  eigenvalues    EBANDS =      -974.41377690
  atomic energy  EATOM  =      2579.02021461
  Solvation  Ediel_sol  =         0.00000000
  ---------------------------------------------------
  free energy    TOTEN  =      -210.74502229 eV

  energy without entropy =     -210.74502229  energy(sigma->0) =     -210.74502229


--------------------------------------------------------------------------------------------------------




--------------------------------------- Iteration      1(  22)  ---------------------------------------


    POTLOK:  cpu time    0.4596: real time    0.4605
    SETDIJ:  cpu time    0.0017: real time    0.0018
    EDDIAG:  cpu time    0.4189: real time    0.4192
  RMM-DIIS:  cpu time    1.7455: real time    1.7472
    ORTHCH:  cpu time    0.0508: real time    0.0510
       DOS:  cpu time    0.0003: real time    0.0003
    CHARGE:  cpu time    0.2624: real time    0.2636
    MIXING:  cpu time    0.0210: real time    0.0211
    --------------------------------------------
      LOOP:  cpu time    2.9603: real time    2.9646

 eigenvalue-minimisations  :   186
 total energy-change (2. order) :-0.8523403E-03  (-0.1078257E-04)
 number of electron      82.0000002 magnetization 
 augmentation part        1.8996361 magnetization 

 DIPCOR: dipole corrections for dipol
 direction  1 min pos    31, direction  2 min pos    35, direction  3 min pos    38,
 dipolmoment          -0.078881      0.014053     -0.082980 electrons x Angstroem
 Tr[quadrupol]        46.895416

 energy correction for charged system         0.000000 eV
 dipol+quadrupol energy correction           -0.000026 eV
 added-field ion interaction         -0.023101 eV  (added to PSCEN)


 Broyden mixing:
  rms(total) = 0.58016E-03    rms(broyden)= 0.58010E-03
  rms(prec ) = 0.83087E-03
  weight for this iteration     100.00

 eigenvalues of (default mixing * dielectric matrix)
  average eigenvalue GAMMA=   2.0552
  7.9940  4.5042  2.4507  2.4507  2.3333  1.6264  1.2105  1.2105  1.3062  0.7468
  1.1205  1.1205  0.8783  0.9071  0.9684

 Free energy of the ion-electron system (eV)
  ---------------------------------------------------
  alpha Z        PSCENC =         1.93142695
  Ewald energy   TEWEN  =      8460.90261538
  -Hartree energ DENC   =    -10535.67857693
  -exchange      EXHF   =         0.00000000
  -V(xc)+E(xc)   XCENC  =       268.82537460
  PAW double counting   =      6743.97368764    -6755.33666601
  entropy T*S    EENTRO =        -0.00000000
  eigenvalues    EBANDS =      -974.38395087
  atomic energy  EATOM  =      2579.02021461
  Solvation  Ediel_sol  =         0.00000000
  ---------------------------------------------------
  free energy    TOTEN  =      -210.74587463 eV

  energy without entropy =     -210.74587463  energy(sigma->0) =     -210.74587463


--------------------------------------------------------------------------------------------------------




--------------------------------------- Iteration      1(  23)  ---------------------------------------


    POTLOK:  cpu time    0.4563: real time    0.4580
    SETDIJ:  cpu time    0.0019: real time    0.0019
    EDDIAG:  cpu time    0.4192: real time    0.4193
  RMM-DIIS:  cpu time    1.6003: real time    1.6025
    ORTHCH:  cpu time    0.0509: real time    0.0509
       DOS:  cpu time    0.0004: real time    0.0004
    CHARGE:  cpu time    0.2651: real time    0.2651
    MIXING:  cpu time    0.0225: real time    0.0226
    --------------------------------------------
      LOOP:  cpu time    2.8167: real time    2.8208

 eigenvalue-minimisations  :   183
 total energy-change (2. order) :-0.1145233E-02  (-0.1010690E-04)
 number of electron      82.0000002 magnetization 
 augmentation part        1.8996402 magnetization 

 DIPCOR: dipole corrections for dipol
 direction  1 min pos    31, direction  2 min pos    34, direction  3 min pos    26,
 dipolmoment          -0.078671      0.012991     -0.066837 electrons x Angstroem
 Tr[quadrupol]        46.716359

 energy correction for charged system         0.000000 eV
 dipol+quadrupol energy correction           -0.000021 eV
 added-field ion interaction          0.003313 eV  (added to PSCEN)


 Broyden mixing:
  rms(total) = 0.86582E-03    rms(broyden)= 0.86570E-03
  rms(prec ) = 0.95452E-03
  weight for this iteration     100.00

 eigenvalues of (default mixing * dielectric matrix)
  average eigenvalue GAMMA=   2.0666
  8.2384  4.9975  2.6592  2.6592  1.9984  1.9984  1.2257  1.2257  1.2783  1.2783
  0.7468  1.0279  1.0279  0.8766  0.8766  0.9510

 Free energy of the ion-electron system (eV)
  ---------------------------------------------------
  alpha Z        PSCENC =         1.95784575
  Ewald energy   TEWEN  =      8460.90261538
  -Hartree energ DENC   =    -10535.68705556
  -exchange      EXHF   =         0.00000000
  -V(xc)+E(xc)   XCENC  =       268.82186609
  PAW double counting   =      6743.82990437    -6755.19313335
  entropy T*S    EENTRO =        -0.00000000
  eigenvalues    EBANDS =      -974.39927716
  atomic energy  EATOM  =      2579.02021461
  Solvation  Ediel_sol  =         0.00000000
  ---------------------------------------------------
  free energy    TOTEN  =      -210.74701986 eV

  energy without entropy =     -210.74701986  energy(sigma->0) =     -210.74701986


--------------------------------------------------------------------------------------------------------




--------------------------------------- Iteration      1(  24)  ---------------------------------------


    POTLOK:  cpu time    0.4564: real time    0.4569
    SETDIJ:  cpu time    0.0022: real time    0.0022
    EDDIAG:  cpu time    0.4189: real time    0.4191
  RMM-DIIS:  cpu time    1.5951: real time    1.5961
    ORTHCH:  cpu time    0.0509: real time    0.0509
       DOS:  cpu time    0.0004: real time    0.0004
    CHARGE:  cpu time    0.2682: real time    0.2683
    MIXING:  cpu time    0.0234: real time    0.0234
    --------------------------------------------
      LOOP:  cpu time    2.8154: real time    2.8172

 eigenvalue-minimisations  :   163
 total energy-change (2. order) :-0.2459721E-03  (-0.2342284E-05)
 number of electron      82.0000002 magnetization 
 augmentation part        1.8996418 magnetization 

 DIPCOR: dipole corrections for dipol
 direction  1 min pos    24, direction  2 min pos    31, direction  3 min pos    24,
 dipolmoment          -0.079229      0.011972     -0.066633 electrons x Angstroem
 Tr[quadrupol]        46.590144

 energy correction for charged system         0.000000 eV
 dipol+quadrupol energy correction           -0.000021 eV
 added-field ion interaction          0.021564 eV  (added to PSCEN)


 Broyden mixing:
  rms(total) = 0.18190E-03    rms(broyden)= 0.18185E-03
  rms(prec ) = 0.26710E-03
  weight for this iteration     100.00

 eigenvalues of (default mixing * dielectric matrix)
  average eigenvalue GAMMA=   2.0884
  8.4178  5.4948  2.7379  2.7379  2.1215  2.1215  1.2284  1.2284  1.4539  1.2494
  1.2494  0.7468  1.0209  0.9783  0.9783  0.8689  0.8689

 Free energy of the ion-electron system (eV)
  ---------------------------------------------------
  alpha Z        PSCENC =         1.97609732
  Ewald energy   TEWEN  =      8460.90261538
  -Hartree energ DENC   =    -10535.70706999
  -exchange      EXHF   =         0.00000000
  -V(xc)+E(xc)   XCENC  =       268.82149526
  PAW double counting   =      6743.75318601    -6755.11636551
  entropy T*S    EENTRO =        -0.00000000
  eigenvalues    EBANDS =      -974.39743892
  atomic energy  EATOM  =      2579.02021461
  Solvation  Ediel_sol  =         0.00000000
  ---------------------------------------------------
  free energy    TOTEN  =      -210.74726583 eV

  energy without entropy =     -210.74726583  energy(sigma->0) =     -210.74726583


--------------------------------------------------------------------------------------------------------




--------------------------------------- Iteration      1(  25)  ---------------------------------------


    POTLOK:  cpu time    0.4585: real time    0.4591
    SETDIJ:  cpu time    0.0021: real time    0.0021
    EDDIAG:  cpu time    0.4203: real time    0.4206
  RMM-DIIS:  cpu time    1.4267: real time    1.4287
    ORTHCH:  cpu time    0.0512: real time    0.0512
       DOS:  cpu time    0.0005: real time    0.0005
    CHARGE:  cpu time    0.2662: real time    0.2662
    MIXING:  cpu time    0.0248: real time    0.0248
    --------------------------------------------
      LOOP:  cpu time    2.6502: real time    2.6530

 eigenvalue-minimisations  :   153
 total energy-change (2. order) :-0.1932519E-03  (-0.8288337E-06)
 number of electron      82.0000002 magnetization 
 augmentation part        1.8996408 magnetization 

 DIPCOR: dipole corrections for dipol
 direction  1 min pos    22, direction  2 min pos    30, direction  3 min pos    24,
 dipolmoment          -0.079708      0.010967     -0.068258 electrons x Angstroem
 Tr[quadrupol]        46.558075

 energy correction for charged system         0.000000 eV
 dipol+quadrupol energy correction           -0.000021 eV
 added-field ion interaction          0.025998 eV  (added to PSCEN)


 Broyden mixing:
  rms(total) = 0.21189E-03    rms(broyden)= 0.21184E-03
  rms(prec ) = 0.25207E-03
  weight for this iteration     100.00

 eigenvalues of (default mixing * dielectric matrix)
  average eigenvalue GAMMA=   2.1029
  8.5170  5.9111  2.9022  2.5427  2.5427  1.9344  1.9344  1.2228  1.2228  1.2530
  1.2530  1.1107  1.1107  0.7468  0.8785  0.8785  0.9451  0.9451

 Free energy of the ion-electron system (eV)
  ---------------------------------------------------
  alpha Z        PSCENC =         1.98053053
  Ewald energy   TEWEN  =      8460.90261538
  -Hartree energ DENC   =    -10535.71348397
  -exchange      EXHF   =         0.00000000
  -V(xc)+E(xc)   XCENC  =       268.82120061
  PAW double counting   =      6743.77345355    -6755.13663566
  entropy T*S    EENTRO =        -0.00000000
  eigenvalues    EBANDS =      -974.39535415
  atomic energy  EATOM  =      2579.02021461
  Solvation  Ediel_sol  =         0.00000000
  ---------------------------------------------------
  free energy    TOTEN  =      -210.74745909 eV

  energy without entropy =     -210.74745909  energy(sigma->0) =     -210.74745909


--------------------------------------------------------------------------------------------------------




--------------------------------------- Iteration      1(  26)  ---------------------------------------


    POTLOK:  cpu time    0.4569: real time    0.4573
    SETDIJ:  cpu time    0.0023: real time    0.0023
    EDDIAG:  cpu time    0.4193: real time    0.4198
  RMM-DIIS:  cpu time    1.3858: real time    1.3865
    ORTHCH:  cpu time    0.0514: real time    0.0514
       DOS:  cpu time    0.0003: real time    0.0003
    CHARGE:  cpu time    0.2661: real time    0.2662
    MIXING:  cpu time    0.0269: real time    0.0269
    --------------------------------------------
      LOOP:  cpu time    2.6090: real time    2.6106
[...]
 Tr[quadrupol]        46.729404

 energy correction for charged system         0.000000 eV
 dipol+quadrupol energy correction           -0.000022 eV
 added-field ion interaction         -0.003420 eV  (added to PSCEN)


 eigenvalues of (default mixing * dielectric matrix)
  average eigenvalue GAMMA=   1.9463
  1.9463

  free energy =  -0.210748376446E+03  energy without entropy=  -0.210748376446E+03


--------------------------------------------------------------------------------------------------------




--------------------------------------- Iteration      7(   3)  ---------------------------------------


    POTLOK:  cpu time    0.4653: real time    0.4661
    SETDIJ:  cpu time    0.0018: real time    0.0018
    EDDIAG:  cpu time    0.4182: real time    0.4186
  RMM-DIIS:  cpu time    1.4250: real time    1.4271
    ORTHCH:  cpu time    0.0517: real time    0.0517
       DOS:  cpu time    0.0005: real time    0.0005
    CHARGE:  cpu time    0.3092: real time    0.3096
    MIXING:  cpu time    0.0527: real time    0.0528
    --------------------------------------------
      LOOP:  cpu time    2.7245: real time    2.7282

 eigenvalue-minimisations  :   147
 total energy-change (2. order) :-0.2161987E-06  (-0.2972160E-06)
 number of electron      82.0000002 magnetization 
 augmentation part        1.9003991 magnetization 

 DIPCOR: dipole corrections for dipol
 direction  1 min pos    31, direction  2 min pos    31, direction  3 min pos    29,
 dipolmoment          -0.080187      0.009993     -0.070107 electrons x Angstroem
 Tr[quadrupol]        46.731000

 energy correction for charged system         0.000000 eV
 dipol+quadrupol energy correction           -0.000022 eV
 added-field ion interaction         -0.003703 eV  (added to PSCEN)


 eigenvalues of (default mixing * dielectric matrix)
  average eigenvalue GAMMA=   1.5796
  1.1130  2.0463

  free energy =  -0.210748376662E+03  energy without entropy=  -0.210748376662E+03


--------------------------------------------------------------------------------------------------------




--------------------------------------- Iteration      7(   4)  ---------------------------------------


    POTLOK:  cpu time    0.6296: real time    0.6305
    SETDIJ:  cpu time    0.0168: real time    0.0168
    EDDIAG:  cpu time    0.6428: real time    0.6433
  RMM-DIIS:  cpu time    1.4134: real time    1.4140
    ORTHCH:  cpu time    0.1082: real time    0.1083
       DOS:  cpu time    0.0003: real time    0.0003
    CHARGE:  cpu time    0.4137: real time    0.4140
    MIXING:  cpu time    0.0357: real time    0.0357
    --------------------------------------------
      LOOP:  cpu time    3.2603: real time    3.2627

 eigenvalue-minimisations  :   142
 total energy-change (2. order) :-0.5122729E-07  (-0.5139608E-07)
 number of electron      82.0000002 magnetization 
 augmentation part        1.9003975 magnetization 

 DIPCOR: dipole corrections for dipol
 direction  1 min pos    31, direction  2 min pos    31, direction  3 min pos    29,
 dipolmoment          -0.080187      0.010006     -0.070084 electrons x Angstroem
 Tr[quadrupol]        46.731023

 energy correction for charged system         0.000000 eV
 dipol+quadrupol energy correction           -0.000022 eV
 added-field ion interaction         -0.003702 eV  (added to PSCEN)


 eigenvalues of (default mixing * dielectric matrix)
  average eigenvalue GAMMA=   1.8230
  0.9854  2.0222  2.4614

  free energy =  -0.210748376713E+03  energy without entropy=  -0.210748376713E+03


--------------------------------------------------------------------------------------------------------




--------------------------------------- Iteration      7(   5)  ---------------------------------------


    POTLOK:  cpu time    0.7106: real time    0.7116
    SETDIJ:  cpu time    0.0129: real time    0.0129
    EDDIAG:  cpu time    0.6904: real time    0.6909
  RMM-DIIS:  cpu time    1.3001: real time    1.3011
    ORTHCH:  cpu time    0.1015: real time    0.1019
       DOS:  cpu time    0.0089: real time    0.0089
    --------------------------------------------
      LOOP:  cpu time    2.8244: real time    2.8273

 eigenvalue-minimisations  :   112
 total energy-change (2. order) :-0.4358935E-07  (-0.4528545E-08)
 number of electron      82.0000002 magnetization 
 augmentation part        1.9003975 magnetization 

 DIPCOR: dipole corrections for dipol
 direction  1 min pos    31, direction  2 min pos    30, direction  3 min pos    28,
 dipolmoment          -0.080191      0.010023     -0.070050 electrons x Angstroem
 Tr[quadrupol]        46.720463

 energy correction for charged system         0.000000 eV
 dipol+quadrupol energy correction           -0.000022 eV
 added-field ion interaction         -0.002004 eV  (added to PSCEN)


  free energy =  -0.210748376757E+03  energy without entropy=  -0.210748376757E+03


--------------------------------------------------------------------------------------------------------




------------------------ aborting loop because EDIFF is reached ----------------------------------------


    CHARGE:  cpu time    0.4090: real time    0.4289
    FORLOC:  cpu time    0.0747: real time    0.1348
    FORNL :  cpu time    0.4659: real time    0.5578
    STRESS:  cpu time    1.5768: real time    1.6125
    FORCOR:  cpu time    0.6028: real time    0.6080
    FORHAR:  cpu time    0.2882: real time    0.2883
    MIXING:  cpu time    0.0245: real time    0.0245
    OFIELD:  cpu time    0.0001: real time    0.0001

  Number of pair interactions contributing to vdW energy:   11278
  Edisp (eV):   -0.85017
    FORVDW:  cpu time    0.0016: real time    0.0016

  FORCE on cell =-STRESS in cart. coord.  units (eV):
  Direction    XX          YY          ZZ          XY          YZ          ZX
  --------------------------------------------------------------------------------------
  Alpha Z     1.95455     1.95455     1.95455
  Ewald    3569.11021  4491.92863   401.55203  -859.58165   -14.57626   472.23280
  Hartree  4209.36218  4796.66088  1531.35976  -943.30039   -22.92745   462.22744
  E(xc)    -294.66404  -292.75553  -296.34376     0.84899     0.04202    -0.20851
  Local   -8558.98194-10028.95229 -2725.52585  1820.79410    39.62673  -943.48967
  n-local  -107.02107  -110.21321  -107.67670    -1.41014    -0.33234     1.00301
  augment    -3.51250    -3.71527    -3.52819    -0.08491    -0.01490     0.05838
  Kinetic  1182.87522  1144.38281  1197.16728   -17.33547    -1.79500     8.30762
  Fock        0.00000     0.00000     0.00000     0.00000     0.00000     0.00000
  vdW        -0.42678    -0.22141     0.06463     0.24588     0.01621    -0.18321
  -------------------------------------------------------------------------------------
  Total      -1.30416    -0.93084    -0.97623     0.17642     0.03901    -0.05215
  in kB      -0.13373    -0.09545    -0.10010     0.01809     0.00400    -0.00535
  external pressure =       -0.11 kB  Pullay stress =        0.00 kB



--------------------------------------------------------------------------------------------------------



  FREE ENERGIE OF THE ION-ELECTRON SYSTEM (eV)
  ---------------------------------------------------
  free  energy   TOTEN  =      -211.59854950 eV

  energy  without entropy=     -211.59854950  energy(sigma->0) =     -211.59854950
 
 d Force = 0.9054249E-05[ 0.147E-07, 0.181E-04]  d Energy = 0.9733115E-05-0.679E-06
 d Force =-0.2231133E+00[-0.223E+00,-0.223E+00]  d Ewald  =-0.2231133E+00 0.362E-09


--------------------------------------------------------------------------------------------------------


    POTLOK:  cpu time    0.7288: real time    0.7294


--------------------------------------------------------------------------------------------------------




--------------------------------------------------------------------------------------------------------


    WAVPRE:  cpu time    0.1734: real time    0.1756
    FEWALD:  cpu time    0.0134: real time    0.0134
    ORTHCH:  cpu time    0.2906: real time    0.2927
     LOOP+:  cpu time   19.8686: real time   20.1460


--------------------------------------- Iteration      8(   1)  ---------------------------------------


    POTLOK:  cpu time    0.6070: real time    0.6085
    SETDIJ:  cpu time    0.0173: real time    0.0173
     EDDAV:  cpu time    4.5203: real time    4.5269
       DOS:  cpu time    0.0227: real time    0.0227
    CHARGE:  cpu time    0.3447: real time    0.3448
    MIXING:  cpu time    0.0131: real time    0.0131
    --------------------------------------------
      LOOP:  cpu time    5.5252: real time    5.5335

 eigenvalue-minimisations  :   288
 total energy-change (2. order) :-0.4234928E-04  (-0.1697207E-03)
 number of electron      82.0000002 magnetization 
 augmentation part        1.9004682 magnetization 

 DIPCOR: dipole corrections for dipol
 direction  1 min pos    30, direction  2 min pos    30, direction  3 min pos    28,
 dipolmoment          -0.080193      0.010028     -0.070038 electrons x Angstroem
 Tr[quadrupol]        46.706230

 energy correction for charged system         0.000000 eV
 dipol+quadrupol energy correction           -0.000022 eV
 added-field ion interaction          0.000261 eV  (added to PSCEN)


  free energy =  -0.210748419062E+03  energy without entropy=  -0.210748419062E+03


--------------------------------------------------------------------------------------------------------




--------------------------------------- Iteration      8(   2)  ---------------------------------------


    POTLOK:  cpu time    0.4731: real time    0.4736
    SETDIJ:  cpu time    0.0018: real time    0.0018
    EDDIAG:  cpu time    0.4197: real time    0.4205
  RMM-DIIS:  cpu time    1.4828: real time    1.4994
    ORTHCH:  cpu time    0.0529: real time    0.0529
       DOS:  cpu time    0.0003: real time    0.0003
    CHARGE:  cpu time    0.2646: real time    0.2648
    MIXING:  cpu time    0.0134: real time    0.0133
    --------------------------------------------
      LOOP:  cpu time    2.7084: real time    2.7266

 eigenvalue-minimisations  :   164
 total energy-change (2. order) :-0.7832787E-06  (-0.2328221E-05)
 number of electron      82.0000002 magnetization 
 augmentation part        1.9004689 magnetization 

 DIPCOR: dipole corrections for dipol
 direction  1 min pos    30, direction  2 min pos    31, direction  3 min pos    30,
 dipolmoment          -0.080216      0.010047     -0.070040 electrons x Angstroem
 Tr[quadrupol]        46.728994

 energy correction for charged system         0.000000 eV
 dipol+quadrupol energy correction           -0.000022 eV
 added-field ion interaction         -0.003414 eV  (added to PSCEN)


 eigenvalues of (default mixing * dielectric matrix)
  average eigenvalue GAMMA=   1.9357
  1.9357

  free energy =  -0.210748419846E+03  energy without entropy=  -0.210748419846E+03


--------------------------------------------------------------------------------------------------------




--------------------------------------- Iteration      8(   3)  ---------------------------------------


    POTLOK:  cpu time    0.4679: real time    0.4689
    SETDIJ:  cpu time    0.0017: real time    0.0017
    EDDIAG:  cpu time    0.4186: real time    0.4193
  RMM-DIIS:  cpu time    1.4239: real time    1.4251
    ORTHCH:  cpu time    0.0523: real time    0.0523
       DOS:  cpu time    0.0002: real time    0.0002
    CHARGE:  cpu time    0.2683: real time    0.2684
    MIXING:  cpu time    0.0136: real time    0.0136
    --------------------------------------------
      LOOP:  cpu time    2.6464: real time    2.6496

 eigenvalue-minimisations  :   148
 total energy-change (2. order) :-0.1736189E-06  (-0.3733615E-06)
 number of electron      82.0000002 magnetization 
 augmentation part        1.9004650 magnetization 

 DIPCOR: dipole corrections for dipol
 direction  1 min pos    31, direction  2 min pos    31, direction  3 min pos    29,
 dipolmoment          -0.080251      0.010069     -0.070017 electrons x Angstroem
 Tr[quadrupol]        46.730386

 energy correction for charged system         0.000000 eV
 dipol+quadrupol energy correction           -0.000022 eV
 added-field ion interaction         -0.003702 eV  (added to PSCEN)


 eigenvalues of (default mixing * dielectric matrix)
  average eigenvalue GAMMA=   1.6454
  1.1153  2.1756

  free energy =  -0.210748420019E+03  energy without entropy=  -0.210748420019E+03


--------------------------------------------------------------------------------------------------------




--------------------------------------- Iteration      8(   4)  ---------------------------------------


    POTLOK:  cpu time    0.4698: real time    0.4708
    SETDIJ:  cpu time    0.0017: real time    0.0017
    EDDIAG:  cpu time    0.4181: real time    0.4182
  RMM-DIIS:  cpu time    1.4062: real time    1.4082
    ORTHCH:  cpu time    0.0520: real time    0.0521
       DOS:  cpu time    0.0003: real time    0.0003
    CHARGE:  cpu time    0.2694: real time    0.2695
    MIXING:  cpu time    0.0136: real time    0.0136
    --------------------------------------------
      LOOP:  cpu time    2.6312: real time    2.6345

 eigenvalue-minimisations  :   147
 total energy-change (2. order) :-0.7512153E-07  (-0.6422252E-07)
 number of electron      82.0000002 magnetization 
 augmentation part        1.9004635 magnetization 

 DIPCOR: dipole corrections for dipol
 direction  1 min pos    31, direction  2 min pos    31, direction  3 min pos    28,
 dipolmoment          -0.080260      0.010071     -0.070003 electrons x Angstroem
 Tr[quadrupol]        46.717974

 energy correction for charged system         0.000000 eV
 dipol+quadrupol energy correction           -0.000022 eV
 added-field ion interaction         -0.001723 eV  (added to PSCEN)


 eigenvalues of (default mixing * dielectric matrix)
  average eigenvalue GAMMA=   1.7750
  0.9773  1.9313  2.4164

  free energy =  -0.210748420094E+03  energy without entropy=  -0.210748420094E+03


--------------------------------------------------------------------------------------------------------




--------------------------------------- Iteration      8(   5)  ---------------------------------------


    POTLOK:  cpu time    0.4706: real time    0.4717
    SETDIJ:  cpu time    0.0018: real time    0.0018
    EDDIAG:  cpu time    0.4206: real time    0.4211
  RMM-DIIS:  cpu time    1.2845: real time    1.2851
    ORTHCH:  cpu time    0.0515: real time    0.0515
       DOS:  cpu time    0.0004: real time    0.0004
    --------------------------------------------
      LOOP:  cpu time    2.2294: real time    2.2317

 eigenvalue-minimisations  :   112
 total energy-change (2. order) :-0.2420529E-07  (-0.3035154E-08)
 number of electron      82.0000002 magnetization 
 augmentation part        1.9004635 magnetization 

 DIPCOR: dipole corrections for dipol
 direction  1 min pos    31, direction  2 min pos    31, direction  3 min pos    28,
 dipolmoment          -0.080271      0.010071     -0.069966 electrons x Angstroem
 Tr[quadrupol]        46.718044

 energy correction for charged system         0.000000 eV
 dipol+quadrupol energy correction           -0.000022 eV
 added-field ion interaction         -0.001725 eV  (added to PSCEN)


  free energy =  -0.210748420119E+03  energy without entropy=  -0.210748420119E+03


--------------------------------------------------------------------------------------------------------




------------------------ aborting loop because EDIFF is reached ----------------------------------------


    CHARGE:  cpu time    0.2656: real time    0.2659
    FORLOC:  cpu time    0.0780: real time    0.0781
    FORNL :  cpu time    0.5270: real time    0.5273
    STRESS:  cpu time    1.5290: real time    1.5382
    FORCOR:  cpu time    0.3936: real time    0.3938
    FORHAR:  cpu time    0.1619: real time    0.1621
    MIXING:  cpu time    0.0131: real time    0.0131
    OFIELD:  cpu time    0.0001: real time    0.0001

  Number of pair interactions contributing to vdW energy:   11278
  Edisp (eV):   -0.85018
    FORVDW:  cpu time    0.0016: real time    0.0016

  FORCE on cell =-STRESS in cart. coord.  units (eV):
  Direction    XX          YY          ZZ          XY          YZ          ZX
  --------------------------------------------------------------------------------------
  Alpha Z     1.95455     1.95455     1.95455
  Ewald    3569.00964  4492.17935   401.63005  -859.61420   -14.62105   472.32147
  Hartree  4209.32529  4796.81838  1531.46368  -943.34000   -22.93279   462.28044
  E(xc)    -294.66725  -292.75803  -296.34649     0.84901     0.04177    -0.20842
  Local   -8558.85128-10029.33904 -2725.71471  1820.87396    39.66956  -943.62684
  n-local  -107.02777  -110.21913  -107.68294    -1.41018    -0.33187     1.00330
  augment    -3.51260    -3.71559    -3.52825    -0.08499    -0.01485     0.05835
  Kinetic  1182.90362  1144.38467  1197.18895   -17.34051    -1.79117     8.30598
  Fock        0.00000     0.00000     0.00000     0.00000     0.00000     0.00000
  vdW        -0.42694    -0.22166     0.06442     0.24580     0.01613    -0.18325
  -------------------------------------------------------------------------------------
  Total      -1.29274    -0.91651    -0.97074     0.17889     0.03573    -0.04897
  in kB      -0.13256    -0.09398    -0.09954     0.01834     0.00366    -0.00502
  external pressure =       -0.11 kB  Pullay stress =        0.00 kB



--------------------------------------------------------------------------------------------------------



  FREE ENERGIE OF THE ION-ELECTRON SYSTEM (eV)
  ---------------------------------------------------
  free  energy   TOTEN  =      -211.59859686 eV

  energy  without entropy=     -211.59859686  energy(sigma->0) =     -211.59859686
 
 d Force = 0.4708460E-04[ 0.361E-04, 0.580E-04]  d Energy = 0.4736370E-04-0.279E-06
 d Force =-0.2281367E+00[-0.228E+00,-0.228E+00]  d Ewald  =-0.2281367E+00 0.317E-09


--------------------------------------------------------------------------------------------------------


    POTLOK:  cpu time    0.4718: real time    0.4724


--------------------------------------------------------------------------------------------------------


 Conjugate gradient step on ions:
 trial-energy change:   -0.000047  1 .order   -0.000047   -0.000058   -0.000036
  (g-gl).g = 0.437E-04      g.g   = 0.464E-04  gl.gl    = 0.104E-03
 g(Force)  = 0.464E-04   g(Stress)= 0.000E+00 ortho     = 0.272E-07
 gamma     =   0.41802
 trial     =   1.24994
 opt step  =   3.31276  (harmonic =   3.31276) maximal distance =0.00100317
 next E    =  -211.598626   (d E  =  -0.00008)


--------------------------------------------------------------------------------------------------------


  
 reached required accuracy - stopping structural energy minimisation
     LOOP+:  cpu time   19.1897: real time   19.2384
    4ORBIT:  cpu time    0.0000: real time    0.0004

 total amount of memory used by VASP MPI-rank0   207723. kBytes
=======================================================================

   base      :      30000. kBytes
   nonlr-proj:       3319. kBytes
   fftplans  :      26902. kBytes
   grid      :     136550. kBytes
   one-center:        104. kBytes
   wavefun   :      10848. kBytes
 
  
  
 General timing and accounting informations for this job:
 ========================================================
  
                  Total CPU time used (sec):      289.583
                            User time (sec):      263.242
                          System time (sec):       26.341
                         Elapsed time (sec):      291.046
  
                   Maximum memory used (kb):      816480.
                   Average memory used (kb):           0.
  
                          Minor page faults:       743210
                          Major page faults:            0
                 Voluntary context switches:         5047
