 vasp.5.3.5 31Mar14 (build May 07 2014 16:01:45) complex                        
  
 executed on             LinuxIFC date 2018.07.19  18:49:08
 running on   24 total cores
 distrk:  each k-point on   24 cores,    1 groups
 distr:  one band on NCORES_PER_BAND=  12 cores,    2 groups


--------------------------------------------------------------------------------------------------------


 INCAR:
 POTCAR:    PAW_PBE Au 04Oct2007                  

 ----------------------------------------------------------------------------- 
|                                                                             |
|           W    W    AA    RRRRR   N    N  II  N    N   GGGG   !!!           |
|           W    W   A  A   R    R  NN   N  II  NN   N  G    G  !!!           |
|           W    W  A    A  R    R  N N  N  II  N N  N  G       !!!           |
|           W WW W  AAAAAA  RRRRR   N  N N  II  N  N N  G  GGG   !            |
|           WW  WW  A    A  R   R   N   NN  II  N   NN  G    G                |
|           W    W  A    A  R    R  N    N  II  N    N   GGGG   !!!           |
|                                                                             |
|      For optimal performance we recommend to set                            |
|        NCORE= 4 - approx SQRT( number of cores)                             |
|      NCORE specifies how many cores store one orbital (NPAR=cpu/NCORE).     |
|      This setting can  greatly improve the performance of VASP for DFT.     |
|      The default, NPAR=number of cores might be grossly inefficient         |
|      on modern multi-core architectures or massively parallel machines.     |
|      Do your own testing !!!!                                               |
|      Unfortunately you need to use the default for GW and RPA calculations. |
|      (for HF NCORE is supported but not extensively tested yet)             |
|                                                                             |
 ----------------------------------------------------------------------------- 

 POTCAR:    PAW_PBE Au 04Oct2007                  
   VRHFIN =Au: s1d10                                                            
   LEXCH  = PE                                                                  
   EATOM  =   926.0867 eV,   68.0654 Ry                                         
                                                                                
   TITEL  = PAW_PBE Au 04Oct2007                                                
   LULTRA =        F    use ultrasoft PP ?                                      
   IUNSCR =        1    unscreen: 0-lin 1-nonlin 2-no                           
   RPACOR =    2.330    partial core radius                                     
   POMASS =  196.966; ZVAL   =   11.000    mass and valenz                      
   RCORE  =    2.500    outmost cutoff radius                                   
   RWIGS  =    2.840; RWIGS  =    1.503    wigner-seitz radius (au A)           
   ENMAX  =  229.943; ENMIN  =  172.457 eV                                      
   ICORE  =        3    local potential                                         
   LCOR   =        T    correct aug charges                                     
   LPAW   =        T    paw PP                                                  
   EAUG   =  356.670                                                            
   DEXC   =    0.000                                                            
   RMAX   =    2.562    core radius for proj-oper                               
   RAUG   =    1.300    factor for augmentation sphere                          
   RDEP   =    2.598    radius for radial grids                                 
   RDEPT  =    2.193    core radius for aug-charge                              
                                                                                
   Atomic configuration                                                         
   16 entries                                                                   
     n  l   j            E        occ.                                          
     1  0  0.50    -80748.5001   2.0000                                         
     2  0  0.50    -14244.7466   2.0000                                         
     2  1  1.50    -12310.9591   6.0000                                         
     3  0  0.50     -3362.1768   2.0000                                         
     3  1  1.50     -2801.5463   6.0000                                         
     3  2  2.50     -2203.8206  10.0000                                         
     4  0  0.50      -729.8168   2.0000                                         
     4  1  1.50      -546.0527   6.0000                                         
     4  2  2.50      -325.7302  10.0000                                         
     4  3  3.50       -81.1472  14.0000                                         
     5  0  0.50      -108.3201   2.0000                                         
     5  1  1.50       -59.7479   6.0000                                         
     5  2  2.50        -6.8783  10.0000                                         
     6  0  0.50        -5.7602   1.0000                                         
     6  1  1.50        -6.8029   0.0000                                         
     5  3  2.50        -1.3606   0.0000                                         
   Description                                                                  
     l       E           TYP  RCUT    TYP  RCUT                                 
     2     -6.8782861     23  2.500                                             
     2     -8.2388687     23  2.500                                             
     0     -5.7601759     23  2.500                                             
     0     -0.8493231     23  2.500                                             
     1     -2.7211652     23  2.500                                             
     1     27.2116520     23  2.500                                             
     3     -1.3605826     23  2.500                                             
  local pseudopotential read in
  partial core-charges read in
  partial kinetic energy density read in
  atomic valenz-charges read in
  non local Contribution for L=           2  read in
    real space projection operators read in
  non local Contribution for L=           2  read in
    real space projection operators read in
  non local Contribution for L=           0  read in
    real space projection operators read in
  non local Contribution for L=           0  read in
    real space projection operators read in
  non local Contribution for L=           1  read in
    real space projection operators read in
  non local Contribution for L=           1  read in
    real space projection operators read in
    PAW grid and wavefunctions read in
 
   number of l-projection  operators is LMAX  =           6
   number of lm-projection operators is LMMAX =          18
 
 Optimization of the real space projectors (new method)

 maximal supplied QI-value         = 15.12
 optimisation between [QCUT,QGAM] = [ 10.73, 21.62] = [ 32.26,130.87] Ry 
 Optimized for a Real-space Cutoff    1.42 Angstroem

   l    n(q)    QCUT    max X(q) W(low)/X(q) W(high)/X(q)  e(spline) 
   2      8    10.734    60.898    0.15E-03    0.34E-03    0.26E-06
   2      8    10.734    58.894    0.16E-03    0.35E-03    0.27E-06
   0      9    10.734   109.617    0.92E-04    0.16E-03    0.12E-06
   0      9    10.734    75.026    0.89E-04    0.15E-03    0.11E-06
   1      9    10.734    16.344    0.25E-03    0.88E-04    0.14E-06
   1      9    10.734    10.160    0.20E-03    0.77E-04    0.11E-06
  PAW_PBE Au 04Oct2007                  :
 energy of atom  1       EATOM= -926.0867
 kinetic energy error for atom=    0.0057 (will be added to EATOM!!)
 
 
 POSCAR: Au_bulk\(1\1\1)                         
  positions in direct lattice
  velocities in cartesian coordinates
 exchange correlation table for  LEXCH =        8
   RHO(1)=    0.500       N(1)  =     2000
   RHO(2)=  100.500       N(2)  =     4000

 VTST: version 3.1, (03/28/14)

 CHAIN: initializing optimizer
 
 OPT: Using VASP Conjugate-Gradient optimizer
 CHAIN: Read ICHAIN            0
 
 POSCAR: Au_bulk\(1\1\1)                         
  positions in direct lattice
  velocities in cartesian coordinates
 


--------------------------------------------------------------------------------------------------------


 ion  position               nearest neighbor table
   1  0.000  0.000  0.000-   3 2.90   7 2.90  11 2.90  31 2.90  25 2.90   9 2.90  26 2.90  32 2.90
                             2 2.90
   2  0.167  0.083  0.107-  39 2.84  41 2.84  33 2.84  32 2.90   4 2.90   8 2.90  12 2.90  10 2.90
                            26 2.90   9 2.90  11 2.90   1 2.90
   3  0.000  0.250  0.000-   1 2.90   5 2.90  13 2.90  25 2.90  11 2.90  27 2.90  28 2.90  26 2.90
                             4 2.90
   4  0.167  0.333  0.107-  33 2.84  43 2.84  35 2.84  26 2.90   2 2.90   6 2.90  14 2.90  28 2.90
                            12 2.90  11 2.90  13 2.90   3 2.90
   5  0.000  0.500  0.000-   3 2.90   7 2.90  15 2.90  27 2.90  13 2.90  29 2.90  30 2.90  28 2.90
                             6 2.90
   6  0.167  0.583  0.107-  35 2.84  45 2.84  37 2.84  28 2.90   4 2.90   8 2.90  16 2.90  30 2.90
                            14 2.90  13 2.90  15 2.90   5 2.90
   7  0.000  0.750  0.000-   1 2.90   5 2.90   9 2.90  29 2.90  15 2.90  31 2.90  32 2.90  30 2.90
                             8 2.90
   8  0.167  0.833  0.107-  37 2.84  47 2.84  39 2.84  30 2.90   2 2.90   6 2.90  10 2.90  32 2.90
                            16 2.90  15 2.90   9 2.90   7 2.90
   9  0.250  0.000  0.000-   7 2.90  11 2.90  15 2.90  19 2.90  17 2.90   1 2.90   2 2.90   8 2.90
                            10 2.90
  10  0.417  0.083  0.107-  47 2.84  49 2.84  41 2.84  20 2.90   8 2.90  12 2.90  16 2.90   2 2.90
                            18 2.90  17 2.90  19 2.90   9 2.90
  11  0.250  0.250  0.000-   1 2.90   9 2.90  13 2.90  21 2.90  19 2.90   3 2.90   4 2.90   2 2.90
                            12 2.90
  12  0.417  0.333  0.107-  41 2.84  51 2.84  43 2.84  22 2.90   2 2.90  10 2.90  14 2.90   4 2.90
                            20 2.90  19 2.90  21 2.90  11 2.90
  13  0.250  0.500  0.000-   3 2.90  11 2.90  15 2.90  23 2.90  21 2.90   5 2.90   6 2.90   4 2.90
                            14 2.90
  14  0.417  0.583  0.107-  43 2.84  53 2.84  45 2.84  24 2.90   4 2.90  12 2.90  16 2.90   6 2.90
                            22 2.90  21 2.90  23 2.90  13 2.90
  15  0.250  0.750  0.000-   5 2.90   9 2.90  13 2.90  17 2.90   7 2.90  23 2.90   8 2.90   6 2.90
                            16 2.90
  16  0.417  0.833  0.107-  45 2.84  55 2.84  47 2.84  18 2.90   6 2.90  10 2.90  14 2.90  24 2.90
                             8 2.90  23 2.90  17 2.90  15 2.90
  17  0.500  0.000  0.000-  15 2.90  19 2.90  23 2.90  27 2.90  25 2.90   9 2.90  10 2.90  16 2.90
                            18 2.90
  18  0.667  0.083  0.107-  55 2.84  57 2.84  49 2.84  28 2.90  16 2.90  20 2.90  24 2.90  10 2.90
                            26 2.90  25 2.90  27 2.90  17 2.90
  19  0.500  0.250  0.000-   9 2.90  17 2.90  21 2.90  29 2.90  27 2.90  11 2.90  12 2.90  10 2.90
                            20 2.90
  20  0.667  0.333  0.107-  49 2.84  59 2.84  51 2.84  30 2.90  10 2.90  18 2.90  22 2.90  12 2.90
                            28 2.90  27 2.90  29 2.90  19 2.90
  21  0.500  0.500  0.000-  11 2.90  19 2.90  23 2.90  31 2.90  29 2.90  13 2.90  14 2.90  12 2.90
                            22 2.90
  22  0.667  0.583  0.107-  51 2.84  61 2.84  53 2.84  32 2.90  12 2.90  20 2.90  24 2.90  14 2.90
                            30 2.90  29 2.90  31 2.90  21 2.90
  23  0.500  0.750  0.000-  13 2.90  17 2.90  21 2.90  25 2.90  15 2.90  31 2.90  16 2.90  14 2.90
                            24 2.90
  24  0.667  0.833  0.107-  53 2.84  63 2.84  55 2.84  26 2.90  14 2.90  18 2.90  22 2.90  32 2.90
                            16 2.90  31 2.90  25 2.90  23 2.90
  25  0.750  0.000  0.000-   3 2.90  23 2.90  27 2.90  31 2.90  17 2.90   1 2.90  18 2.90  24 2.90
                            26 2.90
  26  0.917  0.083  0.107-  63 2.84  33 2.84  57 2.84  32 2.90   4 2.90  24 2.90  28 2.90   2 2.90
                            18 2.90   1 2.90   3 2.90  25 2.90
  27  0.750  0.250  0.000-   5 2.90  17 2.90  25 2.90  29 2.90   3 2.90  19 2.90  20 2.90  18 2.90
                            28 2.90
  28  0.917  0.333  0.107-  57 2.84  35 2.84  59 2.84  30 2.90   6 2.90  18 2.90  26 2.90  20 2.90
                             4 2.90   3 2.90   5 2.90  27 2.90
  29  0.750  0.500  0.000-   7 2.90  19 2.90  27 2.90  31 2.90   5 2.90  21 2.90  22 2.90  20 2.90
                            30 2.90
  30  0.917  0.583  0.107-  59 2.84  37 2.84  61 2.84  32 2.90   8 2.90  20 2.90  28 2.90  22 2.90
                             6 2.90   5 2.90   7 2.90  29 2.90
  31  0.750  0.750  0.000-   1 2.90  21 2.90  25 2.90  29 2.90   7 2.90  23 2.90  24 2.90  22 2.90
                            32 2.90
  32  0.917  0.833  0.107-  61 2.84  39 2.84  63 2.84  30 2.90   2 2.90  22 2.90  26 2.90  24 2.90
                             8 2.90   7 2.90   1 2.90  31 2.90
  33  0.083  0.167  0.211-   4 2.84  26 2.84   2 2.84  35 2.90  39 2.90  43 2.90  63 2.90  57 2.90
                            41 2.90  36 2.92  44 2.92  34 2.92
  34  0.000  0.000  0.319-  36 2.90  40 2.90  44 2.90  64 2.90  58 2.90  42 2.90  39 2.92  63 2.92
                            33 2.92
  35  0.083  0.417  0.211-   6 2.84  28 2.84   4 2.84  33 2.90  37 2.90  45 2.90  57 2.90  43 2.90
                            59 2.90  38 2.92  46 2.92  36 2.92
  36  0.000  0.250  0.319-  34 2.90  38 2.90  46 2.90  58 2.90  44 2.90  60 2.90  33 2.92  57 2.92
                            35 2.92
  37  0.083  0.667  0.211-   8 2.84  30 2.84   6 2.84  35 2.90  39 2.90  47 2.90  59 2.90  45 2.90
                            61 2.90  40 2.92  48 2.92  38 2.92
  38  0.000  0.500  0.319-  36 2.90  40 2.90  48 2.90  60 2.90  46 2.90  62 2.90  35 2.92  59 2.92
                            37 2.92
  39  0.083  0.917  0.211-   2 2.84  32 2.84   8 2.84  33 2.90  37 2.90  41 2.90  61 2.90  47 2.90
                            63 2.90  34 2.92  42 2.92  40 2.92
  40  0.000  0.750  0.319-  34 2.90  38 2.90  42 2.90  62 2.90  48 2.90  64 2.90  37 2.92  61 2.92
                            39 2.92
  41  0.333  0.167  0.211-  12 2.84   2 2.84  10 2.84  39 2.90  43 2.90  47 2.90  51 2.90  49 2.90
                            33 2.90  44 2.92  52 2.92  42 2.92
  42  0.250  0.000  0.319-  40 2.90  44 2.90  48 2.90  52 2.90  50 2.90  34 2.90  47 2.92  39 2.92
                            41 2.92
  43  0.333  0.417  0.211-  14 2.84   4 2.84  12 2.84  33 2.90  41 2.90  45 2.90  53 2.90  51 2.90
                            35 2.90  46 2.92  54 2.92  44 2.92
  44  0.250  0.250  0.319-  34 2.90  42 2.90  46 2.90  54 2.90  52 2.90  36 2.90  41 2.92  33 2.92
                            43 2.92
  45  0.333  0.667  0.211-  16 2.84   6 2.84  14 2.84  35 2.90  43 2.90  47 2.90  55 2.90  53 2.90
                            37 2.90  48 2.92  56 2.92  46 2.92
  46  0.250  0.500  0.319-  36 2.90  44 2.90  48 2.90  56 2.90  54 2.90  38 2.90  43 2.92  35 2.92
                            45 2.92
  47  0.333  0.917  0.211-  10 2.84   8 2.84  16 2.84  37 2.90  41 2.90  45 2.90  49 2.90  39 2.90
                            55 2.90  42 2.92  50 2.92  48 2.92
  48  0.250  0.750  0.319-  38 2.90  42 2.90  46 2.90  50 2.90  40 2.90  56 2.90  45 2.92  37 2.92
                            47 2.92
  49  0.583  0.167  0.211-  20 2.84  10 2.84  18 2.84  47 2.90  51 2.90  55 2.90  59 2.90  57 2.90
                            41 2.90  52 2.92  60 2.92  50 2.92
  50  0.500  0.000  0.319-  48 2.90  52 2.90  56 2.90  60 2.90  58 2.90  42 2.90  55 2.92  47 2.92
                            49 2.92
  51  0.583  0.417  0.211-  22 2.84  12 2.84  20 2.84  41 2.90  49 2.90  53 2.90  61 2.90  59 2.90
                            43 2.90  54 2.92  62 2.92  52 2.92
  52  0.500  0.250  0.319-  42 2.90  50 2.90  54 2.90  62 2.90  60 2.90  44 2.90  49 2.92  41 2.92
                            51 2.92
  53  0.583  0.667  0.211-  24 2.84  14 2.84  22 2.84  43 2.90  51 2.90  55 2.90  63 2.90  61 2.90
                            45 2.90  56 2.92  64 2.92  54 2.92
  54  0.500  0.500  0.319-  44 2.90  52 2.90  56 2.90  64 2.90  62 2.90  46 2.90  51 2.92  43 2.92
                            53 2.92
  55  0.583  0.917  0.211-  18 2.84  16 2.84  24 2.84  45 2.90  49 2.90  53 2.90  57 2.90  47 2.90
                            63 2.90  50 2.92  58 2.92  56 2.92
  56  0.500  0.750  0.319-  46 2.90  50 2.90  54 2.90  58 2.90  48 2.90  64 2.90  53 2.92  45 2.92
                            55 2.92
  57  0.833  0.167  0.211-  28 2.84  18 2.84  26 2.84  35 2.90  55 2.90  59 2.90  63 2.90  49 2.90
                            33 2.90  60 2.92  36 2.92  58 2.92
  58  0.750  0.000  0.319-  36 2.90  56 2.90  60 2.90  64 2.90  50 2.90  34 2.90  63 2.92  55 2.92
                            57 2.92
  59  0.833  0.417  0.211-  30 2.84  20 2.84  28 2.84  37 2.90  49 2.90  57 2.90  61 2.90  35 2.90
                            51 2.90  62 2.92  38 2.92  60 2.92
  60  0.750  0.250  0.319-  38 2.90  50 2.90  58 2.90  62 2.90  36 2.90  52 2.90  57 2.92  49 2.92
                            59 2.92
  61  0.833  0.667  0.211-  32 2.84  22 2.84  30 2.84  39 2.90  51 2.90  59 2.90  63 2.90  37 2.90
                            53 2.90  64 2.92  40 2.92  62 2.92
  62  0.750  0.500  0.319-  40 2.90  52 2.90  60 2.90  64 2.90  38 2.90  54 2.90  59 2.92  51 2.92
                            61 2.92
  63  0.833  0.917  0.211-  26 2.84  24 2.84  32 2.84  33 2.90  53 2.90  57 2.90  61 2.90  39 2.90
                            55 2.90  58 2.92  34 2.92  64 2.92
  64  0.750  0.750  0.319-  34 2.90  54 2.90  58 2.90  62 2.90  40 2.90  56 2.90  61 2.92  53 2.92
                            63 2.92
 
  LATTYP: Found a hexagonal cell.
 ALAT       =    11.6003999709
 C/A-ratio  =     1.9054257347
  
  Lattice vectors:
  
 A1 = (  11.6003999712,   0.0000000000,   0.0000000000)
 A2 = (  -5.8001999856,  10.0462410688,   0.0000000000)
 A3 = (   0.0000000000,   0.0000000000,  22.1037006378)


Analysis of symmetry for initial positions (statically):
=====================================================================
 Subroutine PRICEL returns following result:
 
  LATTYP: Found a hexagonal cell.
 ALAT       =     2.9000999927
 C/A-ratio  =     7.6217029389
  
  Lattice vectors:
  
 A1 = (   2.9000999928,   0.0000000000,   0.0000000000)
 A2 = (  -1.4500499964,   2.5115602672,   0.0000000000)
 A3 = (   0.0000000000,   0.0000000000,  22.1037006378)
 
  16 primitive cells build up your supercell.
 

 Routine SETGRP: Setting up the symmetry group for a 
 hexagonal supercell.


 Subroutine GETGRP returns: Found  6 space group operations
 (whereof  6 operations were pure point group operations)
 out of a pool of 24 trial point group operations.


The static configuration has the point symmetry C_3v.


Analysis of symmetry for dynamics (positions and initial velocities):
=====================================================================
 Subroutine PRICEL returns following result:
 
  LATTYP: Found a hexagonal cell.
 ALAT       =     2.9000999927
 C/A-ratio  =     7.6217029389
  
  Lattice vectors:
  
 A1 = (   2.9000999928,   0.0000000000,   0.0000000000)
 A2 = (  -1.4500499964,   2.5115602672,   0.0000000000)
 A3 = (   0.0000000000,   0.0000000000,  22.1037006378)
 
  16 primitive cells build up your supercell.
 

 Routine SETGRP: Setting up the symmetry group for a 
 hexagonal supercell.


 Subroutine GETGRP returns: Found  6 space group operations
 (whereof  6 operations were pure point group operations)
 out of a pool of 24 trial point group operations.


The dynamic configuration has the point symmetry C_3v.


Analysis of constrained symmetry for selective dynamics:
=====================================================================
 Subroutine PRICEL returns following result:
 
  LATTYP: Found a hexagonal cell.
 ALAT       =     2.9000999927
 C/A-ratio  =     7.6217029389
  
  Lattice vectors:
  
 A1 = (   2.9000999928,   0.0000000000,   0.0000000000)
 A2 = (  -1.4500499964,   2.5115602672,   0.0000000000)
 A3 = (   0.0000000000,   0.0000000000,  22.1037006378)
 
  16 primitive cells build up your supercell.
 

 Routine SETGRP: Setting up the symmetry group for a 
 hexagonal supercell.


 Subroutine GETGRP returns: Found  6 space group operations
 (whereof  6 operations were pure point group operations)
 out of a pool of 24 trial point group operations.


The constrained configuration has the point symmetry C_3v.
 
 
 KPOINTS: K-Points                                

Automatic generation of k-mesh.
Space group operators:
 irot       det(A)        alpha          n_x          n_y          n_z        tau_x        tau_y        tau_z
    1     1.000000     0.000000     1.000000     0.000000     0.000000     0.000000     0.000000     0.000000
    2     1.000000   120.000000     0.000000     0.000000    -1.000000     0.000000     0.000000     0.000000
    3     1.000000   120.000000     0.000000     0.000000     1.000000     0.000000     0.000000     0.000000
    4    -1.000000   180.000000     1.000000     0.000000     0.000000     0.000000     0.000000     0.000000
    5    -1.000000   180.000000     0.500000    -0.866025     0.000000     0.000000     0.000000     0.000000
    6    -1.000000   180.000000    -0.500000    -0.866025     0.000000     0.000000     0.000000     0.000000
 
 Subroutine IBZKPT returns following result:
 ===========================================
 
 Found      3 irreducible k-points:
 
 Following reciprocal coordinates:
            Coordinates               Weight
  0.000000  0.000000  0.000000      1.000000
  0.333333 -0.000000  0.000000      6.000000
  0.333333  0.333333  0.000000      2.000000
 
 Following cartesian coordinates:
            Coordinates               Weight
  0.000000  0.000000  0.000000      1.000000
  0.028735  0.016590  0.000000      6.000000
  0.028735  0.049770  0.000000      2.000000
 


--------------------------------------------------------------------------------------------------------




 Dimension of arrays:
   k-points           NKPTS =      3   k-points in BZ     NKDIM =      3   number of bands    NBANDS=    422
   number of dos      NEDOS =    301   number of ions     NIONS =     64
   non local maximal  LDIM  =      6   non local SUM 2l+1 LMDIM =     18
   total plane-waves  NPLWV = 432000
   max r-space proj   IRMAX =   2071   max aug-charges    IRDMAX=  10454
   dimension x,y,z NGX =    60 NGY =   60 NGZ =  120
   dimension x,y,z NGXF=   120 NGYF=  120 NGZF=  240
   support grid    NGXF=   120 NGYF=  120 NGZF=  240
   ions per type =              64
 NGX,Y,Z   is equivalent  to a cutoff of   8.60,  8.60,  9.03 a.u.
 NGXF,Y,Z  is equivalent  to a cutoff of  17.20, 17.20, 18.05 a.u.


 I would recommend the setting:
   dimension x,y,z NGX =    60 NGY =   60 NGZ =  115
 SYSTEM =  Au 111                                  
 POSCAR =  Au_bulk\(1\1\1)                         

 Startparameter for this run:
   NWRITE =      2    write-flag & timer
   PREC   = normal    normal or accurate (medium, high low for compatibility)
   ISTART =      0    job   : 0-new  1-cont  2-samecut
   ICHARG =      1    charge: 1-file 2-atom 10-const
   ISPIN  =      1    spin polarized calculation?
   LNONCOLLINEAR =      F non collinear calculations
   LSORBIT =      F    spin-orbit coupling
   INIWAV =      1    electr: 0-lowe 1-rand  2-diag
   LASPH  =      F    aspherical Exc in radial PAW
   METAGGA=      F    non-selfconsistent MetaGGA calc.

 Electronic Relaxation 1
   ENCUT  =  450.0 eV  33.07 Ry    5.75 a.u.  20.06 20.06 38.23*2*pi/ulx,y,z
   ENINI  =  450.0     initial cutoff
   ENAUG  =  356.7 eV  augmentation charge cutoff
   NELM   =    150;   NELMIN=  2; NELMDL= -5     # of ELM steps 
   EDIFF  = 0.1E-05   stopping-criterion for ELM
   LREAL  =      T    real-space projection
   NLSPLINE    = F    spline interpolate recip. space projectors
   LCOMPAT=      F    compatible to vasp.4.4
   GGA_COMPAT  = T    GGA compatible to vasp.4.4-vasp.4.6
   LMAXPAW     = -100 max onsite density
   LMAXMIX     =    2 max onsite mixed and CHGCAR
   VOSKOWN=      0    Vosko Wilk Nusair interpolation
   ROPT   =   -0.00050
 Ionic relaxation
   EDIFFG = -.3E-01   stopping-criterion for IOM
   NSW    =    500    number of steps for IOM
   NBLOCK =      1;   KBLOCK =    500    inner block; outer block 
   IBRION =      2    ionic relax: 0-MD 1-quasi-New 2-CG
   NFREE  =      1    steps in history (QN), initial steepest desc. (CG)
   ISIF   =      2    stress and relaxation
   IWAVPR =     11    prediction:  0-non 1-charg 2-wave 3-comb
   ISYM   =      2    0-nonsym 1-usesym 2-fastsym
   LCORR  =      T    Harris-Foulkes like correction to forces

   POTIM  = 0.1000    time-step for ionic-motion
   TEIN   =    0.0    initial temperature
   TEBEG  =    0.0;   TEEND  =   0.0 temperature during run
   SMASS  =  -3.00    Nose mass-parameter (am)
   estimated Nose-frequenzy (Omega)   =  0.10E-29 period in steps =****** mass=  -0.308E-26a.u.
   SCALEE = 1.0000    scale energy and forces
   NPACO  =    256;   APACO  = 16.0  distance and # of slots for P.C.
   PSTRESS=    0.0 pullay stress

  Mass of Ions in am
   POMASS = 196.97
  Ionic Valenz
   ZVAL   =  11.00
  Atomic Wigner-Seitz radii
   RWIGS  =  -1.00
  virtual crystal weights 
   VCA    =   1.00
   NELECT =     704.0000    total number of electrons
   NUPDOWN=      -1.0000    fix difference up-down

 DOS related values:
   EMIN   =  10.00;   EMAX   =-10.00  energy-range for DOS
   EFERMI =   0.00
   ISMEAR =     1;   SIGMA  =   0.10  broadening in eV -4-tet -1-fermi 0-gaus

 Electronic relaxation 2 (details)
   IALGO  =     68    algorithm
   LDIAG  =      T    sub-space diagonalisation (order eigenvalues)
   LSUBROT=      F    optimize rotation matrix (better conditioning)
   TURBO    =      0    0=normal 1=particle mesh
   IRESTART =      0    0=no restart 2=restart with 2 vectors
   NREBOOT  =      0    no. of reboots
   NMIN     =      0    reboot dimension
   EREF     =   0.00    reference energy to select bands
   IMIX   =      4    mixing-type and parameters
     AMIX     =   0.40;   BMIX     =  1.00
     AMIX_MAG =   1.60;   BMIX_MAG =  1.00
     AMIN     =   0.10
     WC   =   100.;   INIMIX=   1;  MIXPRE=   1;  MAXMIX= -45

 Intra band minimization:
   WEIMIN = 0.0010     energy-eigenvalue tresh-hold
   EBREAK =  0.59E-09  absolut break condition
   DEPER  =   0.30     relativ break condition  

   TIME   =   0.40     timestep for ELM

  volume/ion in A,a.u.               =      40.25       271.62
  Fermi-wavevector in a.u.,A,eV,Ry     =   1.062393  2.007632 15.356609  1.128679
  Thomas-Fermi vector in A             =   2.197842
 
 Write flags
   LWAVE  =      F    write WAVECAR
   LCHARG =      T    write CHGCAR
   LVTOT  =      F    write LOCPOT, total local potential
   LVHAR  =      F    write LOCPOT, Hartree potential only
   LELF   =      F    write electronic localiz. function (ELF)
   LORBIT =      0    0 simple, 1 ext, 2 COOP (PROOUT)


 Dipole corrections
   LMONO  =      F    monopole corrections only (constant potential shift)
   LDIPOL =      T    correct potential (dipole corrections)
   IDIPOL =      3    1-x, 2-y, 3-z, 4-all directions 
   EPSILON=  1.0000000 bulk dielectric constant

 Exchange correlation treatment:
   GGA     =    PE    GGA type
   LEXCH   =     8    internal setting for exchange type
   VOSKOWN=      0    Vosko Wilk Nusair interpolation
   LHFCALC =     F    Hartree Fock is set to
   LHFONE  =     F    Hartree Fock one center treatment
   AEXX    =    0.0000 exact exchange contribution

 Linear response parameters
   LEPSILON=     F    determine dielectric tensor
   LRPA    =     F    only Hartree local field effects (RPA)
   LNABLA  =     F    use nabla operator in PAW spheres
   LVEL    =     F    velocity operator in full k-point grid
   LINTERFAST=   F  fast interpolation
   KINTER  =     0    interpolate to denser k-point grid
   CSHIFT  =0.1000    complex shift for real part using Kramers Kronig
   OMEGAMAX=  -1.0    maximum frequency
   DEG_THRESHOLD= 0.2000000E-02 threshold for treating states as degnerate
   RTIME   =    0.100 relaxation time in fs

 Orbital magnetization related:
   ORBITALMAG=     F  switch on orbital magnetization
   LCHIMAG   =     F  perturbation theory with respect to B field
   DQ        =  0.001000  dq finite difference perturbation B field



--------------------------------------------------------------------------------------------------------


 conjugate gradient relaxation of ions
   using selective dynamics as specified on POSCAR
 charge density and potential will be updated during run
 non-spin polarized calculation
 RMM-DIIS sequential band-by-band and
  variant of blocked Davidson during initial phase
 perform sub-space diagonalisation
    before iterative eigenvector-optimisation
 modified Broyden-mixing scheme, WC =      100.0
 initial mixing is a Kerker type mixing with AMIX =  0.4000 and BMIX =      1.0000
 Hartree-type preconditioning will be used
 using additional bands           70
 real space projection scheme for non local part
 use partial core corrections
 calculate Harris-corrections to forces 
   (improved forces if not selfconsistent)
 use gradient corrections 
 use of overlap-Matrix (Vanderbilt PP)
 Methfessel and Paxton  Order N= 1 SIGMA  =   0.10


--------------------------------------------------------------------------------------------------------


  energy-cutoff  :      450.00
  volume of cell :     2575.97
      direct lattice vectors                 reciprocal lattice vectors
    11.600399971  0.000000000  0.000000000     0.086203924  0.049769859  0.000000000
    -5.800199986 10.046241069  0.000000000     0.000000000  0.099539718  0.000000000
     0.000000000  0.000000000 22.103700638     0.000000000  0.000000000  0.045241293

  length of vectors
    11.600399971 11.600399971 22.103700638     0.099539718  0.099539718  0.045241293


 
 k-points in units of 2pi/SCALE and weight: K-Points                                
   0.00000000  0.00000000  0.00000000       0.111
   0.02873464  0.01658995  0.00000000       0.667
   0.02873464  0.04976986  0.00000000       0.222
 
 k-points in reciprocal lattice and weights: K-Points                                
   0.00000000  0.00000000  0.00000000       0.111
   0.33333333 -0.00000000  0.00000000       0.667
   0.33333333  0.33333333  0.00000000       0.222
 
 position of ions in fractional coordinates (direct lattice) 
   0.00000000  0.00000000  0.00000000
   0.16666751  0.08333250  0.10713000
   0.00000000  0.25000000  0.00000000
   0.16666751  0.33333250  0.10713000
   0.00000000  0.50000000  0.00000000
   0.16666751  0.58333250  0.10713000
   0.00000000  0.75000000  0.00000000
   0.16666751  0.83333250  0.10713000
   0.25000000  0.00000000  0.00000000
   0.41666751  0.08333250  0.10713000
   0.25000000  0.25000000  0.00000000
   0.41666751  0.33333250  0.10713000
   0.25000000  0.50000000  0.00000000
   0.41666751  0.58333250  0.10713000
   0.25000000  0.75000000  0.00000000
   0.41666751  0.83333250  0.10713000
   0.50000000  0.00000000  0.00000000
   0.66666751  0.08333250  0.10713000
   0.50000000  0.25000000  0.00000000
   0.66666751  0.33333250  0.10713000
   0.50000000  0.50000000  0.00000000
   0.66666751  0.58333250  0.10713000
   0.50000000  0.75000000  0.00000000
   0.66666751  0.83333250  0.10713000
   0.75000000  0.00000000  0.00000000
   0.91666751  0.08333250  0.10713000
   0.75000000  0.25000000  0.00000000
   0.91666751  0.33333250  0.10713000
   0.75000000  0.50000000  0.00000000
   0.91666751  0.58333250  0.10713000
   0.75000000  0.75000000  0.00000000
   0.91666751  0.83333250  0.10713000
   0.08333250  0.16666751  0.21086647
   0.00000000  0.00000000  0.31927412
   0.08333250  0.41666751  0.21086647
   0.00000000  0.25000000  0.31927412
   0.08333250  0.66666751  0.21086647
   0.00000000  0.50000000  0.31927412
   0.08333250  0.91666751  0.21086647
   0.00000000  0.75000000  0.31927412
   0.33333250  0.16666751  0.21086647
   0.25000000  0.00000000  0.31927412
   0.33333250  0.41666751  0.21086647
   0.25000000  0.25000000  0.31927412
   0.33333250  0.66666751  0.21086647
   0.25000000  0.50000000  0.31927412
   0.33333250  0.91666751  0.21086647
   0.25000000  0.75000000  0.31927412
   0.58333250  0.16666751  0.21086647
   0.50000000  0.00000000  0.31927412
   0.58333250  0.41666751  0.21086647
   0.50000000  0.25000000  0.31927412
   0.58333250  0.66666751  0.21086647
   0.50000000  0.50000000  0.31927412
   0.58333250  0.91666751  0.21086647
   0.50000000  0.75000000  0.31927412
   0.83333250  0.16666751  0.21086647
   0.75000000  0.00000000  0.31927412
   0.83333250  0.41666751  0.21086647
   0.75000000  0.25000000  0.31927412
   0.83333250  0.66666751  0.21086647
   0.75000000  0.50000000  0.31927412
   0.83333250  0.91666751  0.21086647
   0.75000000  0.75000000  0.31927412
 
 position of ions in cartesian coordinates  (Angst):
   0.00000000  0.00000000  0.00000000
   1.45006456  0.83717840  2.36796943
  -1.45005000  2.51156027  0.00000000
   0.00001456  3.34873866  2.36796943
  -2.90009999  5.02312053  0.00000000
  -1.45003543  5.86029893  2.36796943
  -4.35014999  7.53468080  0.00000000
  -2.90008543  8.37185920  2.36796943
   2.90009999  0.00000000  0.00000000
   4.35016455  0.83717840  2.36796943
   1.45005000  2.51156027  0.00000000
   2.90011456  3.34873866  2.36796943
   0.00000000  5.02312053  0.00000000
   1.45006456  5.86029893  2.36796943
  -1.45005000  7.53468080  0.00000000
   0.00001456  8.37185920  2.36796943
   5.80019999  0.00000000  0.00000000
   7.25026454  0.83717840  2.36796943
   4.35014999  2.51156027  0.00000000
   5.80021455  3.34873866  2.36796943
   2.90009999  5.02312053  0.00000000
   4.35016455  5.86029893  2.36796943
   1.45005000  7.53468080  0.00000000
   2.90011456  8.37185920  2.36796943
   8.70029998  0.00000000  0.00000000
  10.15036454  0.83717840  2.36796943
   7.25024998  2.51156027  0.00000000
   8.70031454  3.34873866  2.36796943
   5.80019999  5.02312053  0.00000000
   7.25026454  5.86029893  2.36796943
   4.35014999  7.53468080  0.00000000
   5.80021455  8.37185920  2.36796943
  -0.00001452  1.67438194  4.66092931
   0.00000000  0.00000000  7.05713959
  -1.45006452  4.18594221  4.66092931
  -1.45005000  2.51156027  7.05713959
  -2.90011451  6.69750248  4.66092931
  -2.90009999  5.02312053  7.05713959
  -4.35016451  9.20906275  4.66092931
  -4.35014999  7.53468080  7.05713959
   2.90008547  1.67438194  4.66092931
   2.90009999  0.00000000  7.05713959
   1.45003548  4.18594221  4.66092931
   1.45005000  2.51156027  7.05713959
  -0.00001452  6.69750248  4.66092931
   0.00000000  5.02312053  7.05713959
  -1.45006452  9.20906275  4.66092931
  -1.45005000  7.53468080  7.05713959
   5.80018546  1.67438194  4.66092931
   5.80019999  0.00000000  7.05713959
   4.35013547  4.18594221  4.66092931
   4.35014999  2.51156027  7.05713959
   2.90008547  6.69750248  4.66092931
   2.90009999  5.02312053  7.05713959
   1.45003548  9.20906275  4.66092931
   1.45005000  7.53468080  7.05713959
   8.70028546  1.67438194  4.66092931
   8.70029998  0.00000000  7.05713959
   7.25023546  4.18594221  4.66092931
   7.25024998  2.51156027  7.05713959
   5.80018546  6.69750248  4.66092931
   5.80019999  5.02312053  7.05713959
   4.35013547  9.20906275  4.66092931
   4.35014999  7.53468080  7.05713959
 


--------------------------------------------------------------------------------------------------------


 k-point  1 :   0.0000 0.0000 0.0000  plane waves:   55763
 k-point  2 :   0.3333-0.0000 0.0000  plane waves:   55851
 k-point  3 :   0.3333 0.3333 0.0000  plane waves:   55854

 maximum and minimum number of plane-waves per node :      4689     4626

 maximum number of plane-waves:     55854
 maximum index in each direction: 
   IXMAX=   20   IYMAX=   20   IZMAX=   38
   IXMIN=  -20   IYMIN=  -20   IZMIN=  -38

 WARNING: aliasing errors must be expected set NGX to  82 to avoid them
 WARNING: aliasing errors must be expected set NGY to  82 to avoid them
 WARNING: aliasing errors must be expected set NGZ to 154 to avoid them
 aliasing errors are usually negligible using standard VASP settings
 and one can safely disregard these warnings

 real space projection operators:
  total allocation   :      17847.00 KBytes
  max/ min on nodes  :       1488.94       1485.56


 parallel 3D FFT for wavefunctions:
    minimum data exchange during FFTs selected (reduces bandwidth)
 parallel 3D FFT for charge:
    minimum data exchange during FFTs selected (reduces bandwidth)


 total amount of memory used by VASP on root node    96860. kBytes
========================================================================

   base      :      30000. kBytes
   nonlr-proj:       4082. kBytes
   fftplans  :       6020. kBytes
   grid      :       8395. kBytes
   one-center:         93. kBytes
   wavefun   :      48270. kBytes
 
     INWAV:  cpu time    0.00: real time    0.00
 Broyden mixing: mesh for mixing (old mesh)
   NGX = 41   NGY = 41   NGZ = 77
  (NGX  =120   NGY  =120   NGZ  =240)
  gives a total of 129437 points

 initial charge density was supplied:
 number of electron     704.0000263 magnetization 
 keeping initial charge density in first step


--------------------------------------------------------------------------------------------------------


 Maximum index for non-local projection operator          178
 Maximum index for augmentation-charges          519 (set IRDMAX)


--------------------------------------------------------------------------------------------------------


 First call to EWALD:  gamma=   0.129
 Maximum number of real-space cells 4x 4x 2
 Maximum number of reciprocal cells 2x 2x 4

 FEWALD executed in parallel
    FEWALD:  cpu time    0.14: real time    0.14


----------------------------------------- Iteration    1(   1)  ---------------------------------------


    POTLOK:  cpu time    0.76: real time    0.76
    SETDIJ:  cpu time    0.05: real time    0.05
     EDDAV:  cpu time  109.85: real time  110.42
       DOS:  cpu time    0.01: real time    0.01
    --------------------------------------------
      LOOP:  cpu time  110.67: real time  111.24

 eigenvalue-minimisations  :  2532
 total energy-change (2. order) : 0.4662837E+04  (-0.3053564E+05)
 number of electron     704.0000263 magnetization 
 augmentation part      704.0000263 magnetization 

 DIPCOR: dipole corrections for dipol
 direction  3 min pos   160,
 dipolmoment           0.000000      0.000000      0.000394 electrons x Angstroem
 Tr[quadrupol]    -16421.353840

 energy correction for charged system         0.000000 eV
 dipol+quadrupol energy correction           -0.000000 eV
 added-field ion interaction          0.001373 eV  (added to PSCEN)


 Free energy of the ion-electron system (eV)
  ---------------------------------------------------
  alpha Z        PSCENC =      1852.11781939
  Ewald energy   TEWEN  =    183030.02581267
  -Hartree energ DENC   =   -244516.48302080
  -exchange      EXHF   =         0.00000000
  -V(xc)+E(xc)   XCENC  =       953.77412892
  PAW double counting   =     65767.99937278   -64448.99936919
  entropy T*S    EENTRO =         0.00170483
  eigenvalues    EBANDS =      2755.21839298
  atomic energy  EATOM  =     59269.18227879
  ---------------------------------------------------
  free energy    TOTEN  =      4662.83712037 eV

  energy without entropy =     4662.83541554  energy(sigma->0) =     4662.83655209


--------------------------------------------------------------------------------------------------------




----------------------------------------- Iteration    1(   2)  ---------------------------------------


     EDDAV:  cpu time  121.69: real time  122.53
       DOS:  cpu time    0.01: real time    0.01
    --------------------------------------------
      LOOP:  cpu time  122.10: real time  122.95

 eigenvalue-minimisations  :  2888
 total energy-change (2. order) :-0.4596943E+04  (-0.4279707E+04)
 number of electron     704.0000263 magnetization 
 augmentation part      704.0000263 magnetization 

 DIPCOR: dipole corrections for dipol
 direction  3 min pos   160,
 dipolmoment           0.000000      0.000000      0.000394 electrons x Angstroem
 Tr[quadrupol]    -16421.353840

 energy correction for charged system         0.000000 eV
 dipol+quadrupol energy correction           -0.000000 eV
 added-field ion interaction          0.001373 eV  (added to PSCEN)


 Free energy of the ion-electron system (eV)
  ---------------------------------------------------
  alpha Z        PSCENC =      1852.11781939
  Ewald energy   TEWEN  =    183030.02581267
  -Hartree energ DENC   =   -244516.48302080
  -exchange      EXHF   =         0.00000000
  -V(xc)+E(xc)   XCENC  =       953.77412892
  PAW double counting   =     65767.99937278   -64448.99936919
  entropy T*S    EENTRO =        -0.02462768
  eigenvalues    EBANDS =     -1841.69847677
  atomic energy  EATOM  =     59269.18227879
  ---------------------------------------------------
  free energy    TOTEN  =        65.89391811 eV

  energy without entropy =       65.91854579  energy(sigma->0) =       65.90212734


--------------------------------------------------------------------------------------------------------




----------------------------------------- Iteration    1(   3)  ---------------------------------------


     EDDAV:  cpu time  121.36: real time  122.98
       DOS:  cpu time    0.01: real time    0.01
    --------------------------------------------
      LOOP:  cpu time  121.76: real time  123.40

 eigenvalue-minimisations  :  2848
 total energy-change (2. order) :-0.2547802E+03  (-0.2449921E+03)
 number of electron     704.0000263 magnetization 
 augmentation part      704.0000263 magnetization 

 DIPCOR: dipole corrections for dipol
 direction  3 min pos   160,
 dipolmoment           0.000000      0.000000      0.000394 electrons x Angstroem
 Tr[quadrupol]    -16421.353840

 energy correction for charged system         0.000000 eV
 dipol+quadrupol energy correction           -0.000000 eV
 added-field ion interaction          0.001373 eV  (added to PSCEN)


 Free energy of the ion-electron system (eV)
  ---------------------------------------------------
  alpha Z        PSCENC =      1852.11781939
  Ewald energy   TEWEN  =    183030.02581267
  -Hartree energ DENC   =   -244516.48302080
  -exchange      EXHF   =         0.00000000
  -V(xc)+E(xc)   XCENC  =       953.77412892
  PAW double counting   =     65767.99937278   -64448.99936919
  entropy T*S    EENTRO =        -0.03605225
  eigenvalues    EBANDS =     -2096.46727266
  atomic energy  EATOM  =     59269.18227879
  ---------------------------------------------------
  free energy    TOTEN  =      -188.88630235 eV

  energy without entropy =     -188.85025010  energy(sigma->0) =     -188.87428494


--------------------------------------------------------------------------------------------------------




----------------------------------------- Iteration    1(   4)  ---------------------------------------


     EDDAV:  cpu time  125.39: real time  126.14
       DOS:  cpu time    0.01: real time    0.01
    --------------------------------------------
      LOOP:  cpu time  125.81: real time  126.56

 eigenvalue-minimisations  :  2888
 total energy-change (2. order) :-0.6337820E+01  (-0.6289746E+01)
 number of electron     704.0000263 magnetization 
 augmentation part      704.0000263 magnetization 

 DIPCOR: dipole corrections for dipol
 direction  3 min pos   160,
 dipolmoment           0.000000      0.000000      0.000394 electrons x Angstroem
 Tr[quadrupol]    -16421.353840

 energy correction for charged system         0.000000 eV
 dipol+quadrupol energy correction           -0.000000 eV
 added-field ion interaction          0.001373 eV  (added to PSCEN)


 Free energy of the ion-electron system (eV)
  ---------------------------------------------------
  alpha Z        PSCENC =      1852.11781939
  Ewald energy   TEWEN  =    183030.02581267
  -Hartree energ DENC   =   -244516.48302080
  -exchange      EXHF   =         0.00000000
  -V(xc)+E(xc)   XCENC  =       953.77412892
  PAW double counting   =     65767.99937278   -64448.99936919
  entropy T*S    EENTRO =        -0.03945264
  eigenvalues    EBANDS =     -2102.80169258
  atomic energy  EATOM  =     59269.18227879
  ---------------------------------------------------
  free energy    TOTEN  =      -195.22412266 eV

  energy without entropy =     -195.18467003  energy(sigma->0) =     -195.21097178


--------------------------------------------------------------------------------------------------------




----------------------------------------- Iteration    1(   5)  ---------------------------------------


     EDDAV:  cpu time  121.70: real time  122.97
       DOS:  cpu time    0.01: real time    0.01
    CHARGE:  cpu time    6.66: real time    6.75
    MIXING:  cpu time    0.08: real time    0.08
    --------------------------------------------
      LOOP:  cpu time  128.85: real time  130.21

 eigenvalue-minimisations  :  2848
 total energy-change (2. order) :-0.1969902E+00  (-0.1966066E+00)
 number of electron     704.0000261 magnetization 
 augmentation part      257.8300390 magnetization 

 DIPCOR: dipole corrections for dipol
 direction  3 min pos   160,
 dipolmoment           0.000000      0.000000      0.000394 electrons x Angstroem
 Tr[quadrupol]    -16421.353840

 energy correction for charged system         0.000000 eV
 dipol+quadrupol energy correction           -0.000000 eV
 added-field ion interaction          0.001373 eV  (added to PSCEN)


 Broyden mixing:
  rms(total) = 0.32227E+00    rms(broyden)= 0.32227E+00
  rms(prec ) = 0.37572E+00
  weight for this iteration     100.00

 Free energy of the ion-electron system (eV)
  ---------------------------------------------------
  alpha Z        PSCENC =      1852.11781939
  Ewald energy   TEWEN  =    183030.02581267
  -Hartree energ DENC   =   -244516.48302080
  -exchange      EXHF   =         0.00000000
  -V(xc)+E(xc)   XCENC  =       953.77412892
  PAW double counting   =     65767.99937278   -64448.99936919
  entropy T*S    EENTRO =        -0.03945380
  eigenvalues    EBANDS =     -2102.99868161
  atomic energy  EATOM  =     59269.18227879
  ---------------------------------------------------
  free energy    TOTEN  =      -195.42111286 eV

  energy without entropy =     -195.38165906  energy(sigma->0) =     -195.40796159


--------------------------------------------------------------------------------------------------------




----------------------------------------- Iteration    1(   6)  ---------------------------------------


    POTLOK:  cpu time    0.68: real time    0.69
    SETDIJ:  cpu time    0.04: real time    0.04
    EDDIAG:  cpu time   19.02: real time   19.29
  RMM-DIIS:  cpu time   46.18: real time   46.51
    ORTHCH:  cpu time    5.18: real time    5.19
       DOS:  cpu time    0.01: real time    0.01
    CHARGE:  cpu time    6.13: real time    6.15
    MIXING:  cpu time    0.09: real time    0.09
    --------------------------------------------
      LOOP:  cpu time   77.34: real time   77.99

 eigenvalue-minimisations  :  2546
 total energy-change (2. order) : 0.2096998E+00  (-0.8679099E-01)
 number of electron     704.0000261 magnetization 
 augmentation part      257.6578033 magnetization 

 DIPCOR: dipole corrections for dipol
 direction  3 min pos   166,
 dipolmoment           0.000000      0.000000      0.085934 electrons x Angstroem
 Tr[quadrupol]    -16419.598810

 energy correction for charged system         0.000000 eV
 dipol+quadrupol energy correction           -0.000259 eV
 added-field ion interaction          2.647742 eV  (added to PSCEN)


 Broyden mixing:
  rms(total) = 0.27056E+00    rms(broyden)= 0.27056E+00
  rms(prec ) = 0.29750E+00
  weight for this iteration     100.00

 eigenvalues of (default mixing * dielectric matrix)
  average eigenvalue GAMMA=   0.5709
  0.5709

 Free energy of the ion-electron system (eV)
  ---------------------------------------------------
  alpha Z        PSCENC =      1854.76392977
  Ewald energy   TEWEN  =    183030.02581267
  -Hartree energ DENC   =   -244488.34876102
  -exchange      EXHF   =         0.00000000
  -V(xc)+E(xc)   XCENC  =       954.64930716
  PAW double counting   =     65847.06975327   -64526.76413442
  entropy T*S    EENTRO =        -0.03182869
  eigenvalues    EBANDS =     -2135.75777061
  atomic energy  EATOM  =     59269.18227879
  ---------------------------------------------------
  free energy    TOTEN  =      -195.21141308 eV

  energy without entropy =     -195.17958440  energy(sigma->0) =     -195.20080352


--------------------------------------------------------------------------------------------------------




----------------------------------------- Iteration    1(   7)  ---------------------------------------


    POTLOK:  cpu time    0.78: real time    0.78
    SETDIJ:  cpu time    0.05: real time    0.05
    EDDIAG:  cpu time   20.71: real time   20.82
  RMM-DIIS:  cpu time   43.72: real time   43.90
    ORTHCH:  cpu time    5.24: real time    5.25
       DOS:  cpu time    0.01: real time    0.01
    CHARGE:  cpu time    7.75: real time    7.77
    MIXING:  cpu time    0.03: real time    0.03
    --------------------------------------------
      LOOP:  cpu time   78.30: real time   78.61

 eigenvalue-minimisations  :  2557
 total energy-change (2. order) : 0.3602498E-01  (-0.1127095E-01)
 number of electron     704.0000260 magnetization 
 augmentation part      257.5109809 magnetization 

 DIPCOR: dipole corrections for dipol
 direction  3 min pos   160,
 dipolmoment           0.000000      0.000000     -0.091916 electrons x Angstroem
 Tr[quadrupol]    -16420.503762

 energy correction for charged system         0.000000 eV
 dipol+quadrupol energy correction           -0.000297 eV
 added-field ion interaction         -0.319797 eV  (added to PSCEN)


 Broyden mixing:
  rms(total) = 0.16751E+00    rms(broyden)= 0.16751E+00
  rms(prec ) = 0.21611E+00
  weight for this iteration     100.00

 eigenvalues of (default mixing * dielectric matrix)
  average eigenvalue GAMMA=   0.7088
  0.7088  0.7088

 Free energy of the ion-electron system (eV)
  ---------------------------------------------------
  alpha Z        PSCENC =      1851.79635274
  Ewald energy   TEWEN  =    183030.02581267
  -Hartree energ DENC   =   -244519.72877708
  -exchange      EXHF   =         0.00000000
  -V(xc)+E(xc)   XCENC  =       954.81026797
  PAW double counting   =     65869.97594063   -64549.27386488
  entropy T*S    EENTRO =        -0.05036819
  eigenvalues    EBANDS =     -2101.91303075
  atomic energy  EATOM  =     59269.18227879
  ---------------------------------------------------
  free energy    TOTEN  =      -195.17538810 eV

  energy without entropy =     -195.12501991  energy(sigma->0) =     -195.15859871


--------------------------------------------------------------------------------------------------------




----------------------------------------- Iteration    1(   8)  ---------------------------------------


    POTLOK:  cpu time    0.68: real time    0.69
    SETDIJ:  cpu time    0.05: real time    0.05
    EDDIAG:  cpu time   19.62: real time   19.66
  RMM-DIIS:  cpu time   48.62: real time   48.86
    ORTHCH:  cpu time    5.11: real time    5.12
       DOS:  cpu time    0.03: real time    0.03
    CHARGE:  cpu time    5.66: real time    5.72
    MIXING:  cpu time    0.03: real time    0.03
    --------------------------------------------
      LOOP:  cpu time   79.80: real time   80.16

 eigenvalue-minimisations  :  2546
 total energy-change (2. order) :-0.1439358E-01  (-0.7820200E-02)
 number of electron     704.0000261 magnetization 
 augmentation part      257.4842898 magnetization 

 DIPCOR: dipole corrections for dipol
 direction  3 min pos   163,
 dipolmoment           0.000000      0.000000      0.141044 electrons x Angstroem
 Tr[quadrupol]    -16420.798470

 energy correction for charged system         0.000000 eV
 dipol+quadrupol energy correction           -0.000699 eV
 added-field ion interaction          2.418241 eV  (added to PSCEN)


 Broyden mixing:
  rms(total) = 0.15909E+00    rms(broyden)= 0.15908E+00
  rms(prec ) = 0.22916E+00
  weight for this iteration     100.00

 eigenvalues of (default mixing * dielectric matrix)
  average eigenvalue GAMMA=   0.9686
  2.0621  0.6304  0.2132

 Free energy of the ion-electron system (eV)
  ---------------------------------------------------
  alpha Z        PSCENC =      1854.53398853
  Ewald energy   TEWEN  =    183030.02581267
  -Hartree energ DENC   =   -244526.18361204
  -exchange      EXHF   =         0.00000000
  -V(xc)+E(xc)   XCENC  =       954.87935943
  PAW double counting   =     65866.37160463   -64545.47825057
  entropy T*S    EENTRO =        -0.05153738
  eigenvalues    EBANDS =     -2098.46942574
  atomic energy  EATOM  =     59269.18227879
  ---------------------------------------------------
  free energy    TOTEN  =      -195.18978169 eV

  energy without entropy =     -195.13824431  energy(sigma->0) =     -195.17260256


--------------------------------------------------------------------------------------------------------




----------------------------------------- Iteration    1(   9)  ---------------------------------------


    POTLOK:  cpu time    0.81: real time    0.81
    SETDIJ:  cpu time    0.06: real time    0.06
    EDDIAG:  cpu time   19.88: real time   20.04
  RMM-DIIS:  cpu time   47.35: real time   47.54
    ORTHCH:  cpu time    5.23: real time    5.24
       DOS:  cpu time    0.02: real time    0.02
    CHARGE:  cpu time    6.71: real time    6.73
    MIXING:  cpu time    0.03: real time    0.03
    --------------------------------------------
      LOOP:  cpu time   80.09: real time   80.47

 eigenvalue-minimisations  :  2545
 total energy-change (2. order) : 0.6721258E-01  (-0.3408942E-02)
 number of electron     704.0000261 magnetization 
 augmentation part      257.4361627 magnetization 

 DIPCOR: dipole corrections for dipol
 direction  3 min pos   161,
 dipolmoment           0.000000      0.000000      0.012082 electrons x Angstroem
 Tr[quadrupol]    -16421.184166

 energy correction for charged system         0.000000 eV
 dipol+quadrupol energy correction           -0.000005 eV
 added-field ion interaction          0.097072 eV  (added to PSCEN)


 Broyden mixing:
  rms(total) = 0.34939E-01    rms(broyden)= 0.34939E-01
  rms(prec ) = 0.35808E-01
  weight for this iteration     100.00

 eigenvalues of (default mixing * dielectric matrix)
  average eigenvalue GAMMA=   1.0972
  2.2651  1.2536  0.6598  0.2103

 Free energy of the ion-electron system (eV)
  ---------------------------------------------------
  alpha Z        PSCENC =      1852.21351365
  Ewald energy   TEWEN  =    183030.02581267
  -Hartree energ DENC   =   -244542.97076701
  -exchange      EXHF   =         0.00000000
  -V(xc)+E(xc)   XCENC  =       955.08956078
  PAW double counting   =     65844.47689742   -64523.00140835
  entropy T*S    EENTRO =        -0.05371687
  eigenvalues    EBANDS =     -2080.08474018
  atomic energy  EATOM  =     59269.18227879
  ---------------------------------------------------
  free energy    TOTEN  =      -195.12256911 eV

  energy without entropy =     -195.06885224  energy(sigma->0) =     -195.10466348


--------------------------------------------------------------------------------------------------------




----------------------------------------- Iteration    1(  10)  ---------------------------------------


    POTLOK:  cpu time    0.70: real time    0.70
    SETDIJ:  cpu time    0.08: real time    0.08
    EDDIAG:  cpu time   20.35: real time   20.40
  RMM-DIIS:  cpu time   46.97: real time   47.17
    ORTHCH:  cpu time    5.12: real time    5.13
       DOS:  cpu time    0.01: real time    0.01
    CHARGE:  cpu time    6.77: real time    6.78
    MIXING:  cpu time    0.06: real time    0.06
    --------------------------------------------
      LOOP:  cpu time   80.06: real time   80.36

 eigenvalue-minimisations  :  2556
 total energy-change (2. order) : 0.4670894E-03  (-0.1841336E-03)
 number of electron     704.0000261 magnetization 
 augmentation part      257.4477566 magnetization 

 DIPCOR: dipole corrections for dipol
 direction  3 min pos   160,
 dipolmoment           0.000000      0.000000      0.003069 electrons x Angstroem
 Tr[quadrupol]    -16421.446087

 energy correction for charged system         0.000000 eV
 dipol+quadrupol energy correction           -0.000000 eV
 added-field ion interaction          0.010677 eV  (added to PSCEN)


 Broyden mixing:
  rms(total) = 0.12646E-01    rms(broyden)= 0.12646E-01
  rms(prec ) = 0.15800E-01
  weight for this iteration     100.00

 eigenvalues of (default mixing * dielectric matrix)
  average eigenvalue GAMMA=   1.2395
  2.4626  1.8437  1.0281  0.6524  0.2106

 Free energy of the ion-electron system (eV)
  ---------------------------------------------------
  alpha Z        PSCENC =      1852.12712393
  Ewald energy   TEWEN  =    183030.02581267
  -Hartree energ DENC   =   -244548.92080093
  -exchange      EXHF   =         0.00000000
  -V(xc)+E(xc)   XCENC  =       955.11314397
  PAW double counting   =     65825.22699724   -64503.70247051
  entropy T*S    EENTRO =        -0.05356015
  eigenvalues    EBANDS =     -2074.12062703
  atomic energy  EATOM  =     59269.18227879
  ---------------------------------------------------
  free energy    TOTEN  =      -195.12210202 eV

  energy without entropy =     -195.06854187  energy(sigma->0) =     -195.10424863


--------------------------------------------------------------------------------------------------------




----------------------------------------- Iteration    1(  11)  ---------------------------------------


    POTLOK:  cpu time    0.79: real time    0.79
    SETDIJ:  cpu time    0.07: real time    0.07
    EDDIAG:  cpu time   20.43: real time   20.47
  RMM-DIIS:  cpu time   46.18: real time   46.36
    ORTHCH:  cpu time    5.20: real time    5.21
       DOS:  cpu time    0.02: real time    0.02
    CHARGE:  cpu time    6.39: real time    6.40
    MIXING:  cpu time    0.07: real time    0.07
    --------------------------------------------
      LOOP:  cpu time   79.15: real time   79.41

 eigenvalue-minimisations  :  2553
 total energy-change (2. order) : 0.2972718E-03  (-0.3365636E-04)
 number of electron     704.0000261 magnetization 
 augmentation part      257.4486585 magnetization 

 DIPCOR: dipole corrections for dipol
 direction  3 min pos   160,
 dipolmoment           0.000000      0.000000      0.011429 electrons x Angstroem
 Tr[quadrupol]    -16421.720974

 energy correction for charged system         0.000000 eV
 dipol+quadrupol energy correction           -0.000005 eV
 added-field ion interaction          0.039763 eV  (added to PSCEN)


 Broyden mixing:
  rms(total) = 0.30510E-02    rms(broyden)= 0.30509E-02
  rms(prec ) = 0.52150E-02
  weight for this iteration     100.00

 eigenvalues of (default mixing * dielectric matrix)
  average eigenvalue GAMMA=   1.2364
  2.5600  1.9953  0.2107  0.6517  1.1031  0.8976

 Free energy of the ion-electron system (eV)
  ---------------------------------------------------
  alpha Z        PSCENC =      1852.15620494
  Ewald energy   TEWEN  =    183030.02581267
  -Hartree energ DENC   =   -244554.91124916
  -exchange      EXHF   =         0.00000000
  -V(xc)+E(xc)   XCENC  =       955.14242166
  PAW double counting   =     65811.65793673   -64490.12716394
  entropy T*S    EENTRO =        -0.05351496
  eigenvalues    EBANDS =     -2068.19453148
  atomic energy  EATOM  =     59269.18227879
  ---------------------------------------------------
  free energy    TOTEN  =      -195.12180474 eV

  energy without entropy =     -195.06828978  energy(sigma->0) =     -195.10396642


--------------------------------------------------------------------------------------------------------




----------------------------------------- Iteration    1(  12)  ---------------------------------------


    POTLOK:  cpu time    0.69: real time    0.69
    SETDIJ:  cpu time    0.06: real time    0.06
    EDDIAG:  cpu time   20.63: real time   20.80
  RMM-DIIS:  cpu time   48.75: real time   49.07
    ORTHCH:  cpu time    5.14: real time    5.15
       DOS:  cpu time    0.01: real time    0.01
    CHARGE:  cpu time    6.11: real time    6.12
    MIXING:  cpu time    0.08: real time    0.08
    --------------------------------------------
      LOOP:  cpu time   81.47: real time   81.98

 eigenvalue-minimisations  :  2555
 total energy-change (2. order) :-0.3086071E-04  (-0.5412933E-05)
 number of electron     704.0000261 magnetization 
 augmentation part      257.4464054 magnetization 

 DIPCOR: dipole corrections for dipol
 direction  3 min pos   160,
 dipolmoment           0.000000      0.000000      0.009226 electrons x Angstroem
 Tr[quadrupol]    -16421.864776

 energy correction for charged system         0.000000 eV
 dipol+quadrupol energy correction           -0.000003 eV
 added-field ion interaction          0.032100 eV  (added to PSCEN)


 Broyden mixing:
  rms(total) = 0.15582E-02    rms(broyden)= 0.15582E-02
  rms(prec ) = 0.31168E-02
  weight for this iteration     100.00

 eigenvalues of (default mixing * dielectric matrix)
  average eigenvalue GAMMA=   1.3240
  2.3834  2.3834  1.7517  0.2107  1.0986  0.6527  0.7877

 Free energy of the ion-electron system (eV)
  ---------------------------------------------------
  alpha Z        PSCENC =      1852.14854351
  Ewald energy   TEWEN  =    183030.02581267
  -Hartree energ DENC   =   -244557.87702186
  -exchange      EXHF   =         0.00000000
  -V(xc)+E(xc)   XCENC  =       955.15791084
  PAW double counting   =     65806.59278858   -64485.06200859
  entropy T*S    EENTRO =        -0.05352630
  eigenvalues    EBANDS =     -2065.23661325
  atomic energy  EATOM  =     59269.18227879
  ---------------------------------------------------
  free energy    TOTEN  =      -195.12183560 eV

  energy without entropy =     -195.06830930  energy(sigma->0) =     -195.10399350


--------------------------------------------------------------------------------------------------------




----------------------------------------- Iteration    1(  13)  ---------------------------------------


    POTLOK:  cpu time    0.79: real time    0.79
    SETDIJ:  cpu time    0.06: real time    0.06
    EDDIAG:  cpu time   19.43: real time   19.48
  RMM-DIIS:  cpu time   50.01: real time   50.20
    ORTHCH:  cpu time    5.25: real time    5.26
       DOS:  cpu time    0.01: real time    0.01
    CHARGE:  cpu time    5.36: real time    5.37
    MIXING:  cpu time    0.04: real time    0.04
    --------------------------------------------
      LOOP:  cpu time   80.95: real time   81.23

 eigenvalue-minimisations  :  2547
 total energy-change (2. order) :-0.1807421E-03  (-0.4486458E-05)
 number of electron     704.0000261 magnetization 
 augmentation part      257.4445084 magnetization 

 DIPCOR: dipole corrections for dipol
 direction  3 min pos   160,
 dipolmoment           0.000000      0.000000      0.008008 electrons x Angstroem
 Tr[quadrupol]    -16422.084385

 energy correction for charged system         0.000000 eV
 dipol+quadrupol energy correction           -0.000002 eV
 added-field ion interaction          0.027863 eV  (added to PSCEN)


 Broyden mixing:
  rms(total) = 0.10820E-02    rms(broyden)= 0.10820E-02
  rms(prec ) = 0.23965E-02
  weight for this iteration     100.00

 eigenvalues of (default mixing * dielectric matrix)
  average eigenvalue GAMMA=   1.4667
  3.3034  2.5339  1.9259  0.2107  1.2907  0.6527  0.9957  0.8205

 Free energy of the ion-electron system (eV)
  ---------------------------------------------------
  alpha Z        PSCENC =      1852.14430788
  Ewald energy   TEWEN  =    183030.02581267
  -Hartree energ DENC   =   -244561.98531984
  -exchange      EXHF   =         0.00000000
  -V(xc)+E(xc)   XCENC  =       955.17294178
  PAW double counting   =     65801.27054217   -64479.74579184
  entropy T*S    EENTRO =        -0.05355969
  eigenvalues    EBANDS =     -2061.13322827
  atomic energy  EATOM  =     59269.18227879
  ---------------------------------------------------
  free energy    TOTEN  =      -195.12201635 eV

  energy without entropy =     -195.06845666  energy(sigma->0) =     -195.10416312


--------------------------------------------------------------------------------------------------------




----------------------------------------- Iteration    1(  14)  ---------------------------------------


    POTLOK:  cpu time    0.67: real time    0.67
    SETDIJ:  cpu time    0.06: real time    0.06
    EDDIAG:  cpu time   19.51: real time   19.59
  RMM-DIIS:  cpu time   43.89: real time   44.08
    ORTHCH:  cpu time    5.21: real time    5.22
       DOS:  cpu time    0.01: real time    0.01
    CHARGE:  cpu time    5.84: real time    5.86
    MIXING:  cpu time    0.03: real time    0.03
    --------------------------------------------
      LOOP:  cpu time   75.23: real time   75.53

 eigenvalue-minimisations  :  2518
 total energy-change (2. order) :-0.3005080E-03  (-0.6227131E-05)
 number of electron     704.0000261 magnetization 
 augmentation part      257.4446860 magnetization 

 DIPCOR: dipole corrections for dipol
 direction  3 min pos   160,
 dipolmoment           0.000000      0.000000      0.009212 electrons x Angstroem
 Tr[quadrupol]    -16422.363266

 energy correction for charged system         0.000000 eV
 dipol+quadrupol energy correction           -0.000003 eV
 added-field ion interaction          0.032051 eV  (added to PSCEN)


 Broyden mixing:
  rms(total) = 0.92934E-03    rms(broyden)= 0.92934E-03
  rms(prec ) = 0.16024E-02
  weight for this iteration     100.00

 eigenvalues of (default mixing * dielectric matrix)
  average eigenvalue GAMMA=   1.7036
  4.9896  2.3969  2.3969  1.7160  0.2107  1.1945  0.6526  0.9240  0.8507

 Free energy of the ion-electron system (eV)
  ---------------------------------------------------
  alpha Z        PSCENC =      1852.14849492
  Ewald energy   TEWEN  =    183030.02581267
  -Hartree energ DENC   =   -244566.76240387
  -exchange      EXHF   =         0.00000000
  -V(xc)+E(xc)   XCENC  =       955.18386840
  PAW double counting   =     65797.25167728   -64475.73284293
  entropy T*S    EENTRO =        -0.05359516
  eigenvalues    EBANDS =     -2056.36560696
  atomic energy  EATOM  =     59269.18227879
  ---------------------------------------------------
  free energy    TOTEN  =      -195.12231685 eV

  energy without entropy =     -195.06872170  energy(sigma->0) =     -195.10445180


--------------------------------------------------------------------------------------------------------




----------------------------------------- Iteration    1(  15)  ---------------------------------------


    POTLOK:  cpu time    0.76: real time    0.77
    SETDIJ:  cpu time    0.05: real time    0.05
    EDDIAG:  cpu time   19.63: real time   19.67
  RMM-DIIS:  cpu time   45.84: real time   46.06
    ORTHCH:  cpu time    5.22: real time    5.24
       DOS:  cpu time    0.02: real time    0.02
    CHARGE:  cpu time    6.75: real time    6.81
    MIXING:  cpu time    0.05: real time    0.05
    --------------------------------------------
      LOOP:  cpu time   78.33: real time   78.67

 eigenvalue-minimisations  :  2506
 total energy-change (2. order) :-0.3113616E-03  (-0.5230132E-05)
 number of electron     704.0000261 magnetization 
 augmentation part      257.4443660 magnetization 

 DIPCOR: dipole corrections for dipol
 direction  3 min pos   166,
 dipolmoment           0.000000      0.000000      0.018722 electrons x Angstroem
 Tr[quadrupol]    -16422.541678

 energy correction for charged system         0.000000 eV
 dipol+quadrupol energy correction           -0.000012 eV
 added-field ion interaction          0.576844 eV  (added to PSCEN)


 Broyden mixing:
  rms(total) = 0.29536E-02    rms(broyden)= 0.29536E-02
  rms(prec ) = 0.59383E-02
  weight for this iteration     100.00

 eigenvalues of (default mixing * dielectric matrix)
  average eigenvalue GAMMA=   1.5668
  4.9899  2.3724  2.3724  1.7173  0.2107  1.1705  0.6526  0.8757  0.8757  0.4310

 Free energy of the ion-electron system (eV)
  ---------------------------------------------------
  alpha Z        PSCENC =      1852.69327890
  Ewald energy   TEWEN  =    183030.02581267
  -Hartree energ DENC   =   -244569.16271283
  -exchange      EXHF   =         0.00000000
  -V(xc)+E(xc)   XCENC  =       955.18800351
  PAW double counting   =     65798.37773265   -64476.85612444
  entropy T*S    EENTRO =        -0.05361572
  eigenvalues    EBANDS =     -2054.51728174
  atomic energy  EATOM  =     59269.18227879
  ---------------------------------------------------
  free energy    TOTEN  =      -195.12262822 eV

  energy without entropy =     -195.06901249  energy(sigma->0) =     -195.10475631


--------------------------------------------------------------------------------------------------------




----------------------------------------- Iteration    1(  16)  ---------------------------------------


    POTLOK:  cpu time    0.69: real time    0.69
    SETDIJ:  cpu time    0.05: real time    0.05
    EDDIAG:  cpu time   20.09: real time   20.17
  RMM-DIIS:  cpu time   40.56: real time   40.66
    ORTHCH:  cpu time    5.12: real time    5.13
       DOS:  cpu time    0.01: real time    0.01
    CHARGE:  cpu time    5.39: real time    5.40
    MIXING:  cpu time    0.04: real time    0.04
    --------------------------------------------
      LOOP:  cpu time   71.97: real time   72.18

 eigenvalue-minimisations  :  1906
 total energy-change (2. order) :-0.4856487E-04  (-0.6272715E-06)
 number of electron     704.0000261 magnetization 
 augmentation part      257.4444246 magnetization 

 DIPCOR: dipole corrections for dipol
 direction  3 min pos   169,
 dipolmoment           0.000000      0.000000      0.022793 electrons x Angstroem
 Tr[quadrupol]    -16422.552271

 energy correction for charged system         0.000000 eV
 dipol+quadrupol energy correction           -0.000018 eV
 added-field ion interaction          1.013785 eV  (added to PSCEN)


 Broyden mixing:
  rms(total) = 0.37104E-02    rms(broyden)= 0.37104E-02
  rms(prec ) = 0.74924E-02
  weight for this iteration     100.00

 eigenvalues of (default mixing * dielectric matrix)
  average eigenvalue GAMMA=   1.6069
  4.9464  2.5415  2.4763  1.9798  0.2107  1.3674  0.6526  1.1256  0.9344  0.8447
  0.5971

 Free energy of the ion-electron system (eV)
  ---------------------------------------------------
  alpha Z        PSCENC =      1853.13021368
  Ewald energy   TEWEN  =    183030.02581267
  -Hartree energ DENC   =   -244569.16804399
  -exchange      EXHF   =         0.00000000
  -V(xc)+E(xc)   XCENC  =       955.18792838
  PAW double counting   =     65798.33070988   -64476.80923921
  entropy T*S    EENTRO =        -0.05361553
  eigenvalues    EBANDS =     -2054.94872144
  atomic energy  EATOM  =     59269.18227879
  ---------------------------------------------------
  free energy    TOTEN  =      -195.12267678 eV

  energy without entropy =     -195.06906125  energy(sigma->0) =     -195.10480494


--------------------------------------------------------------------------------------------------------




----------------------------------------- Iteration    1(  17)  ---------------------------------------


    POTLOK:  cpu time    0.79: real time    0.79
    SETDIJ:  cpu time    0.07: real time    0.08
    EDDIAG:  cpu time   19.88: real time   20.01
  RMM-DIIS:  cpu time   50.34: real time   50.48
    ORTHCH:  cpu time    5.27: real time    5.29
       DOS:  cpu time    0.01: real time    0.01
    CHARGE:  cpu time    5.82: real time    5.89
    MIXING:  cpu time    0.03: real time    0.03
    --------------------------------------------
      LOOP:  cpu time   82.22: real time   82.60

 eigenvalue-minimisations  :  2519
 total energy-change (2. order) :-0.3946754E-03  (-0.6018704E-05)
 number of electron     704.0000261 magnetization 
 augmentation part      257.4442168 magnetization 

 DIPCOR: dipole corrections for dipol
 direction  3 min pos   171,
 dipolmoment           0.000000      0.000000      0.028396 electrons x Angstroem
 Tr[quadrupol]    -16422.618446

 energy correction for charged system         0.000000 eV
 dipol+quadrupol energy correction           -0.000028 eV
 added-field ion interaction          1.521667 eV  (added to PSCEN)


 Broyden mixing:
  rms(total) = 0.72836E-02    rms(broyden)= 0.72836E-02
  rms(prec ) = 0.14784E-01
  weight for this iteration     100.00

 eigenvalues of (default mixing * dielectric matrix)
  average eigenvalue GAMMA=   1.5676
  4.9724  1.0810  2.5245  2.5245  2.0217  0.2107  1.3847  1.1781  0.6526  0.9484
  0.8346  0.4776

 Free energy of the ion-electron system (eV)
  ---------------------------------------------------
  alpha Z        PSCENC =      1853.63808529
  Ewald energy   TEWEN  =    183030.02581267
  -Hartree energ DENC   =   -244569.73324361
  -exchange      EXHF   =         0.00000000
  -V(xc)+E(xc)   XCENC  =       955.18869226
  PAW double counting   =     65799.71627279   -64478.19356124
  entropy T*S    EENTRO =        -0.05361329
  eigenvalues    EBANDS =     -2054.89379511
  atomic energy  EATOM  =     59269.18227879
  ---------------------------------------------------
  free energy    TOTEN  =      -195.12307146 eV

  energy without entropy =     -195.06945816  energy(sigma->0) =     -195.10520036


--------------------------------------------------------------------------------------------------------




----------------------------------------- Iteration    1(  18)  ---------------------------------------


    POTLOK:  cpu time    0.68: real time    0.69
    SETDIJ:  cpu time    0.05: real time    0.05
    EDDIAG:  cpu time   20.78: real time   20.85
  RMM-DIIS:  cpu time   45.47: real time   45.68
    ORTHCH:  cpu time    5.14: real time    5.15
       DOS:  cpu time    0.01: real time    0.01
    CHARGE:  cpu time    7.74: real time    7.76
    MIXING:  cpu time    0.05: real time    0.05
    --------------------------------------------
      LOOP:  cpu time   79.92: real time   80.24

 eigenvalue-minimisations  :  2526
 total energy-change (2. order) :-0.5609060E-03  (-0.7745685E-05)
 number of electron     704.0000261 magnetization 
 augmentation part      257.4442382 magnetization 

 DIPCOR: dipole corrections for dipol
 direction  3 min pos   172,
 dipolmoment           0.000000      0.000000      0.034987 electrons x Angstroem
 Tr[quadrupol]    -16422.641366

 energy correction for charged system         0.000000 eV
 dipol+quadrupol energy correction           -0.000043 eV
 added-field ion interaction          2.034296 eV  (added to PSCEN)


 Broyden mixing:
  rms(total) = 0.11481E-01    rms(broyden)= 0.11481E-01
  rms(prec ) = 0.23173E-01
  weight for this iteration     100.00

 eigenvalues of (default mixing * dielectric matrix)
  average eigenvalue GAMMA=   1.6721
  5.8112  3.0275  2.2977  2.1917  1.0239  1.0239  0.2107  1.5415  1.2096  0.6526
  0.9489  0.9489  0.8493

 Free energy of the ion-electron system (eV)
  ---------------------------------------------------
  alpha Z        PSCENC =      1854.15070011
  Ewald energy   TEWEN  =    183030.02581267
  -Hartree energ DENC   =   -244569.81022465
  -exchange      EXHF   =         0.00000000
  -V(xc)+E(xc)   XCENC  =       955.18880111
  PAW double counting   =     65799.89353744   -64478.37140927
  entropy T*S    EENTRO =        -0.05361937
  eigenvalues    EBANDS =     -2055.32950919
  atomic energy  EATOM  =     59269.18227879
  ---------------------------------------------------
  free energy    TOTEN  =      -195.12363236 eV

  energy without entropy =     -195.07001300  energy(sigma->0) =     -195.10575924


--------------------------------------------------------------------------------------------------------




----------------------------------------- Iteration    1(  19)  ---------------------------------------


    POTLOK:  cpu time    0.76: real time    0.77
    SETDIJ:  cpu time    0.06: real time    0.06
    EDDIAG:  cpu time   20.65: real time   20.74
  RMM-DIIS:  cpu time   46.24: real time   46.42
    ORTHCH:  cpu time    5.21: real time    5.22
       DOS:  cpu time    0.01: real time    0.01
    CHARGE:  cpu time    6.43: real time    6.49
    MIXING:  cpu time    0.04: real time    0.04
    --------------------------------------------
      LOOP:  cpu time   79.41: real time   79.76

 eigenvalue-minimisations  :  2518
 total energy-change (2. order) : 0.7578271E-03  (-0.1671198E-04)
 number of electron     704.0000261 magnetization 
 augmentation part      257.4442941 magnetization 

 DIPCOR: dipole corrections for dipol
 direction  3 min pos   172,
 dipolmoment           0.000000      0.000000      0.022634 electrons x Angstroem
 Tr[quadrupol]    -16422.638293

 energy correction for charged system         0.000000 eV
 dipol+quadrupol energy correction           -0.000018 eV
 added-field ion interaction          1.316033 eV  (added to PSCEN)


 Broyden mixing:
  rms(total) = 0.41223E-02    rms(broyden)= 0.41223E-02
  rms(prec ) = 0.83750E-02
  weight for this iteration     100.00

 eigenvalues of (default mixing * dielectric matrix)
  average eigenvalue GAMMA=   1.6233
  5.9587  3.1232  2.3322  2.2222  1.0466  1.0466  1.4991  0.2107  1.2064  0.6526
  0.9484  0.8428  0.8184  0.8184

 Free energy of the ion-electron system (eV)
  ---------------------------------------------------
  alpha Z        PSCENC =      1853.43246184
  Ewald energy   TEWEN  =    183030.02581267
  -Hartree energ DENC   =   -244569.99000739
  -exchange      EXHF   =         0.00000000
  -V(xc)+E(xc)   XCENC  =       955.18818473
  PAW double counting   =     65799.82714054   -64478.30393223
  entropy T*S    EENTRO =        -0.05360879
  eigenvalues    EBANDS =     -2054.43120468
  atomic energy  EATOM  =     59269.18227879
  ---------------------------------------------------
  free energy    TOTEN  =      -195.12287454 eV

  energy without entropy =     -195.06926574  energy(sigma->0) =     -195.10500494


--------------------------------------------------------------------------------------------------------




----------------------------------------- Iteration    1(  20)  ---------------------------------------


    POTLOK:  cpu time    0.70: real time    0.70
    SETDIJ:  cpu time    0.07: real time    0.07
    EDDIAG:  cpu time   20.01: real time   20.08
  RMM-DIIS:  cpu time   48.38: real time   48.65
    ORTHCH:  cpu time    5.10: real time    5.14
       DOS:  cpu time    0.01: real time    0.01
    CHARGE:  cpu time    5.85: real time    5.92
    MIXING:  cpu time    0.04: real time    0.04
    --------------------------------------------
      LOOP:  cpu time   80.16: real time   80.61

 eigenvalue-minimisations  :  2524
 total energy-change (2. order) : 0.5606643E-04  (-0.1247530E-04)
 number of electron     704.0000261 magnetization 
 augmentation part      257.4444297 magnetization 

 DIPCOR: dipole corrections for dipol
 direction  3 min pos   172,
 dipolmoment           0.000000      0.000000      0.013237 electrons x Angstroem
 Tr[quadrupol]    -16422.646652

 energy correction for charged system         0.000000 eV
[...]
 -0.000   0.005  -0.000  -0.000   0.001   0.000  -0.007   0.000   0.000  -0.001  -0.000  -0.000  -0.005  -0.000   0.000   0.000
  0.000   0.000   0.003   0.000  -0.000  -0.000  -0.000  -0.008  -0.000   0.000  -0.009   0.003  -0.000  -0.003  -0.000   0.000
  0.001  -0.000   0.000   0.005   0.000  -0.001   0.000  -0.000  -0.007  -0.000   0.000  -0.000   0.000  -0.000  -0.005  -0.000


------------------------ aborting loop because EDIFF is reached ----------------------------------------


    CHARGE:  cpu time    5.23: real time    5.29
    FORLOC:  cpu time    0.12: real time    0.13
    FORNL :  cpu time   22.05: real time   22.35
    STRESS:  cpu time   58.51: real time   58.89
    FORCOR:  cpu time    0.83: real time    0.83
    FORHAR:  cpu time    0.32: real time    0.32
    MIXING:  cpu time    0.15: real time    0.15
    OFIELD:  cpu time    0.00: real time    0.00

 ---------------------------------------------------------------------------------------------

         DFTD3 V3.0 Rev 1        
 Edisp (eV)  -31.51846

 E6    (eV) :   -11.9470
 E8    (eV) :   -19.5714
 % E8        : 62.10
    FORVDW:  cpu time    0.41: real time    0.41

  FORCE on cell =-STRESS in cart. coord.  units (eV):
  Direction    XX          YY          ZZ          XY          YZ          ZX
  --------------------------------------------------------------------------------------
  Alpha Z  1852.11645  1852.11645  1852.11645
  Ewald  221041.03250221041.03430************     0.00155    -0.00090     0.00156
  Hartree236282.90792236282.90823************     0.00027    -0.00011     0.00019
  E(xc)   -3166.07356 -3166.07347 -3179.54242     0.00007     0.00000    -0.00001
  Local  ************************480710.48848    -0.00627     0.00065    -0.00113
  n-local   -35.44408   -59.87252   -16.84068    21.15652     0.69972     1.21116
  augment  4321.80565  4321.80965  4354.98891     0.00346     0.00005    -0.00011
  Kinetic  9788.15143  9780.51830  9883.55648     6.61056    -0.91228    -1.58056
  Fock        0.00000     0.00000     0.00000     0.00000     0.00000     0.00000
  vdW       -31.62103   -31.62104   -21.06438    -0.00001    -0.00001     0.00001
  -------------------------------------------------------------------------------------
  Total     -29.89263   -29.89263     5.15321     0.00000     0.00000     0.00000
  in kB     -18.59230   -18.59230     3.20514     0.00000     0.00000     0.00000
  external pressure =      -11.33 kB  Pullay stress =        0.00 kB


 VOLUME and BASIS-vectors are now :
 -----------------------------------------------------------------------------
  energy-cutoff  :      450.00
  volume of cell :     2575.97
      direct lattice vectors                 reciprocal lattice vectors
    11.600399971  0.000000000  0.000000000     0.086203924  0.049769859  0.000000000
    -5.800199986 10.046241069  0.000000000     0.000000000  0.099539718  0.000000000
     0.000000000  0.000000000 22.103700638     0.000000000  0.000000000  0.045241293

  length of vectors
    11.600399971 11.600399971 22.103700638     0.099539718  0.099539718  0.045241293


 FORCES acting on ions
    electron-ion (+dipol)            ewald-force                    non-local-force                 convergence-correction
 -----------------------------------------------------------------------------------------------
   -.769E-04 0.444E-04 0.257E+04   0.210E-03 -.121E-03 -.257E+04   -.117E-16 0.434E-17 -.332E+00   0.221E-09 -.130E-09 0.318E-02
   -.393E-02 0.226E-02 0.860E+03   -.660E-03 0.380E-03 -.859E+03   0.176E-16 -.104E-16 -.402E+00   0.147E-07 -.853E-08 0.840E-02
   -.769E-04 0.444E-04 0.257E+04   0.210E-03 -.121E-03 -.257E+04   -.618E-17 -.130E-16 -.332E+00   0.222E-09 -.130E-09 0.318E-02
   -.393E-02 0.226E-02 0.860E+03   -.660E-03 0.380E-03 -.859E+03   0.132E-16 0.564E-17 -.402E+00   0.147E-07 -.853E-08 0.840E-02
   -.769E-04 0.444E-04 0.257E+04   0.210E-03 -.121E-03 -.257E+04   0.585E-17 0.585E-17 -.332E+00   0.221E-09 -.129E-09 0.318E-02
   -.393E-02 0.226E-02 0.860E+03   -.660E-03 0.380E-03 -.859E+03   -.651E-18 -.607E-17 -.402E+00   0.147E-07 -.853E-08 0.840E-02
   -.769E-04 0.444E-04 0.257E+04   0.210E-03 -.121E-03 -.257E+04   -.922E-17 0.954E-17 -.332E+00   0.220E-09 -.129E-09 0.318E-02
   -.393E-02 0.226E-02 0.860E+03   -.660E-03 0.380E-03 -.859E+03   0.477E-17 0.000E+00 -.402E+00   0.147E-07 -.853E-08 0.840E-02
   -.769E-04 0.444E-04 0.257E+04   0.210E-03 -.121E-03 -.257E+04   -.987E-17 0.651E-17 -.332E+00   0.220E-09 -.130E-09 0.318E-02
   -.393E-02 0.226E-02 0.860E+03   -.660E-03 0.380E-03 -.859E+03   0.564E-17 -.997E-17 -.402E+00   0.147E-07 -.853E-08 0.840E-02
   -.769E-04 0.444E-04 0.257E+04   0.210E-03 -.121E-03 -.257E+04   -.651E-18 -.390E-17 -.332E+00   0.221E-09 -.129E-09 0.318E-02
   -.393E-02 0.226E-02 0.860E+03   -.660E-03 0.380E-03 -.859E+03   0.150E-16 0.520E-17 -.402E+00   0.147E-07 -.853E-08 0.840E-02
   -.769E-04 0.444E-04 0.257E+04   0.210E-03 -.121E-03 -.257E+04   -.651E-17 0.217E-17 -.332E+00   0.221E-09 -.129E-09 0.318E-02
   -.393E-02 0.226E-02 0.860E+03   -.660E-03 0.380E-03 -.859E+03   0.217E-16 -.694E-17 -.402E+00   0.147E-07 -.853E-08 0.840E-02
   -.769E-04 0.444E-04 0.257E+04   0.210E-03 -.121E-03 -.257E+04   -.423E-17 0.607E-17 -.332E+00   0.221E-09 -.129E-09 0.318E-02
   -.393E-02 0.226E-02 0.860E+03   -.660E-03 0.380E-03 -.859E+03   0.759E-17 -.867E-17 -.402E+00   0.147E-07 -.853E-08 0.840E-02
   -.769E-04 0.444E-04 0.257E+04   0.210E-03 -.121E-03 -.257E+04   -.141E-17 0.239E-17 -.332E+00   0.223E-09 -.129E-09 0.318E-02
   -.393E-02 0.226E-02 0.860E+03   -.660E-03 0.380E-03 -.859E+03   0.137E-16 -.117E-16 -.402E+00   0.147E-07 -.853E-08 0.840E-02
   -.769E-04 0.444E-04 0.257E+04   0.210E-03 -.121E-03 -.257E+04   -.564E-17 0.000E+00 -.332E+00   0.222E-09 -.127E-09 0.318E-02
   -.393E-02 0.226E-02 0.860E+03   -.660E-03 0.380E-03 -.859E+03   0.197E-16 -.260E-17 -.402E+00   0.147E-07 -.853E-08 0.840E-02
   -.769E-04 0.444E-04 0.257E+04   0.210E-03 -.121E-03 -.257E+04   0.163E-17 0.954E-17 -.332E+00   0.223E-09 -.128E-09 0.318E-02
   -.393E-02 0.226E-02 0.860E+03   -.660E-03 0.380E-03 -.859E+03   -.651E-17 0.217E-17 -.402E+00   0.147E-07 -.853E-08 0.840E-02
   -.769E-04 0.444E-04 0.257E+04   0.210E-03 -.121E-03 -.257E+04   -.629E-17 0.607E-17 -.332E+00   0.224E-09 -.129E-09 0.318E-02
   -.393E-02 0.226E-02 0.860E+03   -.660E-03 0.380E-03 -.859E+03   0.260E-17 0.130E-16 -.402E+00   0.147E-07 -.853E-08 0.840E-02
   -.769E-04 0.444E-04 0.257E+04   0.210E-03 -.121E-03 -.257E+04   -.102E-16 -.195E-17 -.332E+00   0.224E-09 -.129E-09 0.318E-02
   -.393E-02 0.226E-02 0.860E+03   -.660E-03 0.380E-03 -.859E+03   0.152E-16 -.781E-17 -.402E+00   0.147E-07 -.853E-08 0.840E-02
   -.769E-04 0.444E-04 0.257E+04   0.210E-03 -.121E-03 -.257E+04   -.108E-18 -.477E-17 -.332E+00   0.223E-09 -.128E-09 0.318E-02
   -.393E-02 0.226E-02 0.860E+03   -.660E-03 0.380E-03 -.859E+03   0.104E-16 -.737E-17 -.402E+00   0.147E-07 -.853E-08 0.840E-02
   -.769E-04 0.444E-04 0.257E+04   0.210E-03 -.121E-03 -.257E+04   0.143E-16 0.672E-17 -.332E+00   0.222E-09 -.127E-09 0.318E-02
   -.393E-02 0.226E-02 0.860E+03   -.660E-03 0.380E-03 -.859E+03   0.932E-17 -.130E-17 -.402E+00   0.147E-07 -.853E-08 0.840E-02
   -.769E-04 0.444E-04 0.257E+04   0.210E-03 -.121E-03 -.257E+04   -.672E-17 0.954E-17 -.332E+00   0.223E-09 -.128E-09 0.318E-02
   -.393E-02 0.226E-02 0.860E+03   -.660E-03 0.380E-03 -.859E+03   -.260E-17 -.781E-17 -.402E+00   0.147E-07 -.853E-08 0.840E-02
   0.394E-02 -.229E-02 -.870E+03   0.639E-03 -.370E-03 0.870E+03   -.499E-17 -.434E-18 0.546E+00   -.280E-08 0.162E-08 0.654E-02
   0.694E-04 -.406E-04 -.256E+04   -.190E-03 0.110E-03 0.256E+04   -.358E-17 -.195E-17 0.196E+00   -.921E-08 0.535E-08 -.156E-02
   0.394E-02 -.229E-02 -.870E+03   0.639E-03 -.370E-03 0.870E+03   0.976E-17 0.434E-18 0.546E+00   -.280E-08 0.162E-08 0.654E-02
   0.694E-04 -.406E-04 -.256E+04   -.190E-03 0.110E-03 0.256E+04   0.347E-17 -.694E-17 0.196E+00   -.921E-08 0.535E-08 -.156E-02
   0.394E-02 -.229E-02 -.870E+03   0.639E-03 -.370E-03 0.870E+03   0.694E-17 0.130E-16 0.546E+00   -.280E-08 0.162E-08 0.654E-02
   0.694E-04 -.406E-04 -.256E+04   -.190E-03 0.110E-03 0.256E+04   -.412E-17 0.390E-17 0.196E+00   -.921E-08 0.535E-08 -.156E-02
   0.394E-02 -.229E-02 -.870E+03   0.639E-03 -.370E-03 0.870E+03   0.178E-16 -.477E-17 0.546E+00   -.280E-08 0.162E-08 0.654E-02
   0.694E-04 -.406E-04 -.256E+04   -.190E-03 0.110E-03 0.256E+04   -.325E-18 0.585E-17 0.196E+00   -.921E-08 0.535E-08 -.156E-02
   0.394E-02 -.229E-02 -.870E+03   0.639E-03 -.370E-03 0.870E+03   -.126E-16 0.434E-17 0.546E+00   -.280E-08 0.162E-08 0.654E-02
   0.694E-04 -.406E-04 -.256E+04   -.190E-03 0.110E-03 0.256E+04   0.434E-18 -.867E-18 0.196E+00   -.921E-08 0.535E-08 -.156E-02
   0.394E-02 -.229E-02 -.870E+03   0.639E-03 -.370E-03 0.870E+03   -.954E-17 -.304E-17 0.546E+00   -.280E-08 0.162E-08 0.654E-02
   0.694E-04 -.406E-04 -.256E+04   -.190E-03 0.110E-03 0.256E+04   -.759E-18 -.195E-17 0.196E+00   -.921E-08 0.535E-08 -.156E-02
   0.394E-02 -.229E-02 -.870E+03   0.639E-03 -.370E-03 0.870E+03   -.867E-18 -.260E-17 0.546E+00   -.279E-08 0.162E-08 0.654E-02
   0.694E-04 -.406E-04 -.256E+04   -.190E-03 0.110E-03 0.256E+04   0.293E-17 0.737E-17 0.196E+00   -.921E-08 0.535E-08 -.156E-02
   0.394E-02 -.229E-02 -.870E+03   0.639E-03 -.370E-03 0.870E+03   -.304E-17 -.147E-16 0.546E+00   -.280E-08 0.162E-08 0.654E-02
   0.694E-04 -.406E-04 -.256E+04   -.190E-03 0.110E-03 0.256E+04   0.358E-17 0.412E-17 0.196E+00   -.921E-08 0.535E-08 -.156E-02
   0.394E-02 -.229E-02 -.870E+03   0.639E-03 -.370E-03 0.870E+03   0.152E-17 0.347E-17 0.546E+00   -.279E-08 0.162E-08 0.654E-02
   0.694E-04 -.406E-04 -.256E+04   -.190E-03 0.110E-03 0.256E+04   0.325E-18 0.173E-17 0.196E+00   -.921E-08 0.535E-08 -.156E-02
   0.394E-02 -.229E-02 -.870E+03   0.639E-03 -.370E-03 0.870E+03   0.173E-16 0.304E-17 0.546E+00   -.279E-08 0.162E-08 0.654E-02
   0.694E-04 -.406E-04 -.256E+04   -.190E-03 0.110E-03 0.256E+04   -.672E-17 0.130E-17 0.196E+00   -.921E-08 0.535E-08 -.156E-02
   0.394E-02 -.229E-02 -.870E+03   0.639E-03 -.370E-03 0.870E+03   0.108E-17 -.108E-16 0.546E+00   -.279E-08 0.162E-08 0.654E-02
   0.694E-04 -.406E-04 -.256E+04   -.190E-03 0.110E-03 0.256E+04   -.390E-17 0.737E-17 0.196E+00   -.921E-08 0.535E-08 -.156E-02
   0.394E-02 -.229E-02 -.870E+03   0.639E-03 -.370E-03 0.870E+03   0.781E-17 -.477E-17 0.546E+00   -.279E-08 0.162E-08 0.654E-02
   0.694E-04 -.406E-04 -.256E+04   -.190E-03 0.110E-03 0.256E+04   -.173E-17 0.128E-16 0.196E+00   -.921E-08 0.535E-08 -.156E-02
   0.394E-02 -.229E-02 -.870E+03   0.639E-03 -.370E-03 0.870E+03   -.239E-17 0.304E-17 0.546E+00   -.280E-08 0.162E-08 0.654E-02
   0.694E-04 -.406E-04 -.256E+04   -.190E-03 0.110E-03 0.256E+04   -.163E-17 0.152E-17 0.196E+00   -.921E-08 0.535E-08 -.156E-02
   0.394E-02 -.229E-02 -.870E+03   0.639E-03 -.370E-03 0.870E+03   0.113E-16 0.117E-16 0.546E+00   -.280E-08 0.162E-08 0.654E-02
   0.694E-04 -.406E-04 -.256E+04   -.190E-03 0.110E-03 0.256E+04   -.445E-17 -.282E-17 0.196E+00   -.921E-08 0.535E-08 -.156E-02
   0.394E-02 -.229E-02 -.870E+03   0.639E-03 -.370E-03 0.870E+03   0.304E-17 -.911E-17 0.546E+00   -.280E-08 0.162E-08 0.654E-02
   0.694E-04 -.406E-04 -.256E+04   -.190E-03 0.110E-03 0.256E+04   -.130E-17 0.737E-17 0.196E+00   -.921E-08 0.535E-08 -.156E-02
   0.394E-02 -.229E-02 -.870E+03   0.639E-03 -.370E-03 0.870E+03   0.759E-17 -.113E-16 0.546E+00   -.280E-08 0.162E-08 0.654E-02
   0.694E-04 -.406E-04 -.256E+04   -.190E-03 0.110E-03 0.256E+04   -.867E-18 0.128E-16 0.196E+00   -.921E-08 0.535E-08 -.156E-02
 -----------------------------------------------------------------------------------------------
   0.368E-04 -.468E-03 -.619E+00   0.265E-12 -.797E-13 -.368E-10   0.122E-15 0.195E-16 0.133E+00   0.473E-07 -.270E-07 0.265E+00
 
 
 POSITION                                       TOTAL-FORCE (eV/Angst)
 -----------------------------------------------------------------------------------
      0.00000      0.00000      0.00000        -0.000000      0.000000     -0.127454
      1.45006      0.83718      2.36797         0.000000      0.000000      0.115236
     -1.45005      2.51156      0.00000        -0.000000      0.000000     -0.127454
      0.00001      3.34874      2.36797         0.000000     -0.000000      0.115236
     -2.90010      5.02312      0.00000        -0.000000      0.000000     -0.127454
     -1.45004      5.86030      2.36797         0.000000     -0.000000      0.115236
     -4.35015      7.53468      0.00000         0.000000      0.000000     -0.127454
     -2.90009      8.37186      2.36797         0.000000     -0.000000      0.115236
      2.90010      0.00000      0.00000        -0.000000      0.000000     -0.127454
      4.35016      0.83718      2.36797         0.000000      0.000000      0.115236
      1.45005      2.51156      0.00000        -0.000000      0.000000     -0.127454
      2.90011      3.34874      2.36797         0.000000     -0.000000      0.115236
      0.00000      5.02312      0.00000        -0.000000      0.000000     -0.127454
      1.45006      5.86030      2.36797        -0.000000     -0.000000      0.115236
     -1.45005      7.53468      0.00000         0.000000      0.000000     -0.127454
      0.00001      8.37186      2.36797        -0.000000     -0.000000      0.115236
      5.80020      0.00000      0.00000        -0.000000      0.000000     -0.127454
      7.25026      0.83718      2.36797         0.000000      0.000000      0.115236
      4.35015      2.51156      0.00000        -0.000000      0.000000     -0.127454
      5.80021      3.34874      2.36797         0.000000     -0.000000      0.115236
      2.90010      5.02312      0.00000        -0.000000      0.000000     -0.127454
      4.35016      5.86030      2.36797        -0.000000     -0.000000      0.115236
      1.45005      7.53468      0.00000         0.000000      0.000000     -0.127454
      2.90011      8.37186      2.36797        -0.000000     -0.000000      0.115236
      8.70030      0.00000      0.00000        -0.000000      0.000000     -0.127454
     10.15036      0.83718      2.36797         0.000000      0.000000      0.115236
      7.25025      2.51156      0.00000        -0.000000      0.000000     -0.127454
      8.70031      3.34874      2.36797         0.000000      0.000000      0.115236
      5.80020      5.02312      0.00000        -0.000000      0.000000     -0.127454
      7.25026      5.86030      2.36797        -0.000000     -0.000000      0.115236
      4.35015      7.53468      0.00000         0.000000      0.000000     -0.127454
      5.80021      8.37186      2.36797        -0.000000     -0.000000      0.115236
     -0.00001      1.67438      4.71057        -0.000000     -0.000000      0.003613
     -0.00000      0.00000      7.11988        -0.000000      0.000000      0.008605
     -1.45006      4.18594      4.71057         0.000000     -0.000000      0.003613
     -1.45005      2.51156      7.11988        -0.000000      0.000000      0.008605
     -2.90011      6.69750      4.71057        -0.000000      0.000000      0.003613
     -2.90010      5.02312      7.11988        -0.000000      0.000000      0.008605
     -4.35016      9.20906      4.71057         0.000000      0.000000      0.003613
     -4.35015      7.53468      7.11988        -0.000000      0.000000      0.008605
      2.90009      1.67438      4.71057        -0.000000     -0.000000      0.003613
      2.90010      0.00000      7.11988        -0.000000      0.000000      0.008605
      1.45004      4.18594      4.71057        -0.000000     -0.000000      0.003613
      1.45005      2.51156      7.11988        -0.000000      0.000000      0.008605
     -0.00001      6.69750      4.71057        -0.000000      0.000000      0.003613
      0.00000      5.02312      7.11988        -0.000000      0.000000      0.008605
     -1.45006      9.20906      4.71057         0.000000      0.000000      0.003613
     -1.45005      7.53468      7.11988        -0.000000      0.000000      0.008605
      5.80019      1.67438      4.71057         0.000000      0.000000      0.003613
      5.80020      0.00000      7.11988        -0.000000      0.000000      0.008605
      4.35014      4.18594      4.71057        -0.000000     -0.000000      0.003613
      4.35015      2.51156      7.11988        -0.000000      0.000000      0.008605
      2.90009      6.69750      4.71057        -0.000000      0.000000      0.003613
      2.90010      5.02312      7.11988        -0.000000      0.000000      0.008605
      1.45004      9.20906      4.71057         0.000000      0.000000      0.003613
      1.45005      7.53468      7.11988        -0.000000      0.000000      0.008605
      8.70029      1.67438      4.71057        -0.000000      0.000000      0.003613
      8.70030      0.00000      7.11988        -0.000000      0.000000      0.008605
      7.25024      4.18594      4.71057         0.000000      0.000000      0.003613
      7.25025      2.51156      7.11988        -0.000000      0.000000      0.008605
      5.80019      6.69750      4.71057        -0.000000      0.000000      0.003613
      5.80020      5.02312      7.11988        -0.000000      0.000000      0.008605
      4.35014      9.20906      4.71057        -0.000000      0.000000      0.003613
      4.35015      7.53468      7.11988        -0.000000      0.000000      0.008605
 -----------------------------------------------------------------------------------
    total drift:                                0.000037     -0.000468     -0.220675


--------------------------------------------------------------------------------------------------------



  FREE ENERGIE OF THE ION-ELECTRON SYSTEM (eV)
  ---------------------------------------------------
  free  energy   TOTEN  =      -226.98152845 eV

  energy  without entropy=     -226.94136400  energy(sigma->0) =     -226.96814030
 
 d Force = 0.8792144E-02[-0.464E-02, 0.222E-01]  d Energy = 0.1230097E-01-0.351E-02
 d Force =-0.1339311E+04[-0.134E+04,-0.134E+04]  d Ewald  =-0.1339311E+04 0.712E-03


--------------------------------------------------------------------------------------------------------


    POTLOK:  cpu time    1.14: real time    1.14


--------------------------------------------------------------------------------------------------------


 stress matrix after NEB project (eV)
    -29.89263     -0.00000      0.00000
      0.00000    -29.89263     -0.00000
      0.00000      0.00000      5.15321
  FORCES: max atom, RMS     0.008605    0.004666
  FORCE total and by dimension    0.037331    0.008605
  Stress total and by dimension   42.587492   29.892632


--------------------------------------------------------------------------------------------------------


  
 reached required accuracy - stopping structural energy minimisation
     LOOP+:  cpu time  905.75: real time  911.96
    4ORBIT:  cpu time    0.00: real time    0.00

 total amount of memory used by VASP on root node    96860. kBytes
========================================================================

   base      :      30000. kBytes
   nonlr-proj:       4082. kBytes
   fftplans  :       6020. kBytes
   grid      :       8395. kBytes
   one-center:         93. kBytes
   wavefun   :      48270. kBytes
 
  
  
 General timing and accounting informations for this job:
 ========================================================
  
                  Total CPU time used (sec):    10844.094
                            User time (sec):     5372.734
                          System time (sec):     5471.359
                         Elapsed time (sec):    10907.776
  
                   Maximum memory used (kb):      164952.
                   Average memory used (kb):           0.
  
                          Minor page faults:      2052108
                          Major page faults:            7
                 Voluntary context switches:         5177
