 vasp.5.4.4.18Apr17-6-g9f103f2a35 (build May 11 2017 09:47:33) complex          
  
 executed on            tekla2IFC date 2022.05.24  18:48:33
 running on   12 total cores
 distrk:  each k-point on   12 cores,    1 groups
 distr:  one band on NCORES_PER_BAND=   1 cores,   12 groups


--------------------------------------------------------------------------------------------------------


 INCAR:
 POTCAR:    PAW_PBE O 08Apr2002                   
 POTCAR:    PAW_PBE C 08Apr2002                   
 POTCAR:    PAW_PBE N 08Apr2002                   
 POTCAR:    PAW_PBE H 15Jun2001                   

 ----------------------------------------------------------------------------- 
|                                                                             |
|           W    W    AA    RRRRR   N    N  II  N    N   GGGG   !!!           |
|           W    W   A  A   R    R  NN   N  II  NN   N  G    G  !!!           |
|           W    W  A    A  R    R  N N  N  II  N N  N  G       !!!           |
|           W WW W  AAAAAA  RRRRR   N  N N  II  N  N N  G  GGG   !            |
|           WW  WW  A    A  R   R   N   NN  II  N   NN  G    G                |
|           W    W  A    A  R    R  N    N  II  N    N   GGGG   !!!           |
|                                                                             |
|      For optimal performance we recommend to set                            |
|        NCORE= 4 - approx SQRT( number of cores)                             |
|      NCORE specifies how many cores store one orbital (NPAR=cpu/NCORE).     |
|      This setting can  greatly improve the performance of VASP for DFT.     |
|      The default,   NCORE=1            might be grossly inefficient         |
|      on modern multi-core architectures or massively parallel machines.     |
|      Do your own testing !!!!                                               |
|      Unfortunately you need to use the default for GW and RPA calculations. |
|      (for HF NCORE is supported but not extensively tested yet)             |
|                                                                             |
 ----------------------------------------------------------------------------- 

 POTCAR:    PAW_PBE O 08Apr2002                   
  local pseudopotential read in
  partial core-charges read in
  partial kinetic energy density read in
  kinetic energy density of atom read in
  atomic valenz-charges read in
  non local Contribution for L=           0  read in
    real space projection operators read in
  non local Contribution for L=           0  read in
    real space projection operators read in
  non local Contribution for L=           1  read in
    real space projection operators read in
  non local Contribution for L=           1  read in
    real space projection operators read in
    PAW grid and wavefunctions read in
 
   number of l-projection  operators is LMAX  =           4
   number of lm-projection operators is LMMAX =           8
 
 POTCAR:    PAW_PBE C 08Apr2002                   
  local pseudopotential read in
  partial core-charges read in
  partial kinetic energy density read in
  atomic valenz-charges read in
  non local Contribution for L=           0  read in
    real space projection operators read in
  non local Contribution for L=           0  read in
    real space projection operators read in
  non local Contribution for L=           1  read in
    real space projection operators read in
  non local Contribution for L=           1  read in
    real space projection operators read in
    PAW grid and wavefunctions read in
 
   number of l-projection  operators is LMAX  =           4
   number of lm-projection operators is LMMAX =           8
 
 POTCAR:    PAW_PBE N 08Apr2002                   
  local pseudopotential read in
  partial core-charges read in
  partial kinetic energy density read in
  atomic valenz-charges read in
  non local Contribution for L=           0  read in
    real space projection operators read in
  non local Contribution for L=           0  read in
    real space projection operators read in
  non local Contribution for L=           1  read in
    real space projection operators read in
  non local Contribution for L=           1  read in
    real space projection operators read in
    PAW grid and wavefunctions read in
 
   number of l-projection  operators is LMAX  =           4
   number of lm-projection operators is LMMAX =           8
 
 POTCAR:    PAW_PBE H 15Jun2001                   
  local pseudopotential read in
  atomic valenz-charges read in
  non local Contribution for L=           0  read in
    real space projection operators read in
  non local Contribution for L=           0  read in
    real space projection operators read in
  non local Contribution for L=           1  read in
    real space projection operators read in
    PAW grid and wavefunctions read in
 
   number of l-projection  operators is LMAX  =           3
   number of lm-projection operators is LMMAX =           5
 
 Optimization of the real space projectors (new method)

 maximal supplied QI-value         = 24.76
 optimisation between [QCUT,QGAM] = [ 10.64, 21.54] = [ 31.73,129.89] Ry 
 Optimized for a Real-space Cutoff    1.23 Angstroem

   l    n(q)    QCUT    max X(q) W(low)/X(q) W(high)/X(q)  e(spline) 
   0      8    10.645    20.381    0.38E-03    0.60E-03    0.15E-06
   0      8    10.645    15.268    0.40E-03    0.65E-03    0.17E-06
   1      7    10.645     5.964    0.30E-03    0.63E-03    0.18E-06
   1      7    10.645     5.382    0.24E-03    0.53E-03    0.16E-06
 Optimization of the real space projectors (new method)

 maximal supplied QI-value         = 25.13
 optimisation between [QCUT,QGAM] = [ 10.81, 21.61] = [ 32.71,130.83] Ry 
 Optimized for a Real-space Cutoff    1.23 Angstroem

   l    n(q)    QCUT    max X(q) W(low)/X(q) W(high)/X(q)  e(spline) 
   0      8    10.807   115.676    0.36E-03    0.72E-03    0.24E-06
   0      8    10.807    87.132    0.35E-03    0.71E-03    0.24E-06
   1      7    10.807     4.429    0.19E-03    0.39E-03    0.11E-06
   1      7    10.807     2.733    0.14E-03    0.28E-03    0.13E-06
 Optimization of the real space projectors (new method)

 maximal supplied QI-value         = 25.13
 optimisation between [QCUT,QGAM] = [ 10.81, 21.61] = [ 32.71,130.83] Ry 
 Optimized for a Real-space Cutoff    1.23 Angstroem

   l    n(q)    QCUT    max X(q) W(low)/X(q) W(high)/X(q)  e(spline) 
   0      8    10.807    79.467    0.34E-03    0.68E-03    0.21E-06
   0      8    10.807    66.151    0.34E-03    0.67E-03    0.21E-06
   1      7    10.807    14.030    0.45E-03    0.13E-02    0.11E-05
   1      7    10.807     9.831    0.48E-03    0.13E-02    0.11E-05
 Optimization of the real space projectors (new method)

 maximal supplied QI-value         = 34.20
 optimisation between [QCUT,QGAM] = [ 10.60, 21.55] = [ 31.48,130.03] Ry 
 Optimized for a Real-space Cutoff    1.23 Angstroem

   l    n(q)    QCUT    max X(q) W(low)/X(q) W(high)/X(q)  e(spline) 
   0      8    10.603    19.460    0.37E-03    0.59E-03    0.23E-06
   0      8    10.603    12.209    0.35E-03    0.56E-03    0.22E-06
   1      7    10.603     4.655    0.70E-04    0.28E-03    0.29E-06
  PAW_PBE O 08Apr2002                   :
 energy of atom  1       EATOM= -432.3788
 kinetic energy error for atom=    0.0389 (will be added to EATOM!!)
  PAW_PBE C 08Apr2002                   :
 energy of atom  2       EATOM= -147.1560
 kinetic energy error for atom=    0.0116 (will be added to EATOM!!)
  PAW_PBE N 08Apr2002                   :
 energy of atom  3       EATOM= -264.5486
 kinetic energy error for atom=    0.0253 (will be added to EATOM!!)
  PAW_PBE H 15Jun2001                   :
 energy of atom  4       EATOM=  -12.4884
 kinetic energy error for atom=    0.0045 (will be added to EATOM!!)
 
 
 POSCAR: O  C  N  H                              
  positions in direct lattice
  velocities in cartesian coordinates
 exchange correlation table for  LEXCH =        8
   RHO(1)=    0.500       N(1)  =     2000
   RHO(2)=  100.500       N(2)  =     4000
 


--------------------------------------------------------------------------------------------------------


 ion  position               nearest neighbor table
   1  0.529  0.597  0.490-   9 1.23
   2  0.800  0.323  0.523-  28 1.10  27 1.10  29 1.10   3 1.50
   3  0.744  0.371  0.519-   4 1.40   8 1.42   2 1.50
   4  0.681  0.354  0.498-  21 1.09   5 1.39   3 1.40
   5  0.629  0.398  0.493-  22 1.09   4 1.39   6 1.40
   6  0.639  0.461  0.511-   7 1.40   5 1.40  18 1.41
   7  0.702  0.479  0.534-  23 1.09   6 1.40   8 1.41
   8  0.755  0.435  0.537-  17 1.39   7 1.41   3 1.42
   9  0.583  0.568  0.489-   1 1.23  19 1.38  18 1.40
  10  0.610  0.704  0.444-  38 1.09  11 1.40  15 1.40
  11  0.632  0.765  0.429-  31 1.09  10 1.40  12 1.40
  12  0.699  0.782  0.423-  11 1.40  13 1.42  16 1.50
  13  0.747  0.733  0.432-  20 1.40  14 1.40  12 1.42
  14  0.726  0.671  0.447-  32 1.09  13 1.40  15 1.40
  15  0.658  0.656  0.453-  10 1.40  14 1.40  19 1.41
  16  0.720  0.848  0.408-  35 1.10  33 1.10  34 1.10  12 1.50
  17  0.817  0.455  0.556-  24 1.01  25 1.01   8 1.39
  18  0.585  0.505  0.507-  26 1.02   9 1.40   6 1.41
  19  0.642  0.593  0.468-  30 1.02   9 1.38  15 1.41
  20  0.815  0.747  0.429-  36 1.01  37 1.01  13 1.40
  21  0.672  0.305  0.484-   4 1.09
  22  0.580  0.383  0.475-   5 1.09
  23  0.709  0.527  0.552-   7 1.09
  24  0.848  0.422  0.573-  17 1.01
  25  0.819  0.497  0.580-  17 1.01
  26  0.538  0.486  0.510-  18 1.02
  27  0.844  0.338  0.496-   2 1.10
  28  0.784  0.276  0.507-   2 1.10
  29  0.818  0.317  0.570-   2 1.10
  30  0.682  0.562  0.467-  19 1.02
  31  0.594  0.802  0.422-  11 1.09
  32  0.764  0.634  0.454-  14 1.09
  33  0.753  0.869  0.443-  16 1.10
  34  0.748  0.851  0.365-  16 1.10
  35  0.677  0.880  0.403-  16 1.10
  36  0.828  0.785  0.403-  20 1.01
  37  0.846  0.710  0.422-  20 1.01
  38  0.557  0.693  0.449-  10 1.09
 
  LATTYP: Found a simple orthorhombic cell.
 ALAT       =    20.0000000000
 B/A-ratio  =     1.0500000000
 C/A-ratio  =     1.1000000000
  
  Lattice vectors:
  
 A1 = (  20.0000000000,   0.0000000000,   0.0000000000)
 A2 = (   0.0000000000,  21.0000000000,   0.0000000000)
 A3 = (   0.0000000000,   0.0000000000,  22.0000000000)


Analysis of symmetry for initial positions (statically):
=====================================================================
 Subroutine PRICEL returns:
 Original cell was already a primitive cell.
 

 Routine SETGRP: Setting up the symmetry group for a 
 simple orthorhombic supercell.


 Subroutine GETGRP returns: Found  1 space group operations
 (whereof  1 operations were pure point group operations)
 out of a pool of  8 trial point group operations.


The static configuration has the point symmetry C_1 .


Analysis of symmetry for dynamics (positions and initial velocities):
=====================================================================
 Subroutine PRICEL returns:
 Original cell was already a primitive cell.
 

 Routine SETGRP: Setting up the symmetry group for a 
 simple orthorhombic supercell.


 Subroutine GETGRP returns: Found  1 space group operations
 (whereof  1 operations were pure point group operations)
 out of a pool of  8 trial point group operations.


The dynamic configuration has the point symmetry C_1 .


Analysis of constrained symmetry for selective dynamics:
=====================================================================
 Subroutine PRICEL returns:
 Original cell was already a primitive cell.
 

 Routine SETGRP: Setting up the symmetry group for a 
 simple orthorhombic supercell.


 Subroutine GETGRP returns: Found  1 space group operations
 (whereof  1 operations were pure point group operations)
 out of a pool of  8 trial point group operations.


The constrained configuration has the point symmetry C_1 .


 Subroutine INISYM returns: Found  1 space group operations
 (whereof  1 operations are pure point group operations),
 and found     1 'primitive' translations

 
 
 KPOINTS: K-POINTS                                

Automatic generation of k-mesh.
Space group operators:
 irot       det(A)        alpha          n_x          n_y          n_z        tau_x        tau_y        tau_z
    1     1.000000     0.000001     1.000000     0.000000     0.000000     0.000000     0.000000     0.000000
 
 Subroutine IBZKPT returns following result:
 ===========================================
 
 Found      1 irreducible k-points:
 
 Following reciprocal coordinates:
            Coordinates               Weight
  0.000000  0.000000  0.000000      1.000000
 
 Following cartesian coordinates:
            Coordinates               Weight
  0.000000  0.000000  0.000000      1.000000
 


--------------------------------------------------------------------------------------------------------




 Dimension of arrays:
   k-points           NKPTS =      1   k-points in BZ     NKDIM =      1   number of bands    NBANDS=     72
   number of dos      NEDOS =    301   number of ions     NIONS =     38
   non local maximal  LDIM  =      4   non local SUM 2l+1 LMDIM =      8
   total plane-waves  NPLWV = ******
   max r-space proj   IRMAX =   1265   max aug-charges    IRDMAX=   2237
   dimension x,y,z NGX =   108 NGY =  112 NGZ =  120
   dimension x,y,z NGXF=   216 NGYF=  224 NGZF=  240
   support grid    NGXF=   216 NGYF=  224 NGZF=  240
   ions per type =               1  15   4  18
   NGX,Y,Z   is equivalent  to a cutoff of   8.98,  8.87,  9.07 a.u.
   NGXF,Y,Z  is equivalent  to a cutoff of  17.95, 17.73, 18.14 a.u.

 SYSTEM =  ag-1211-a                               
 POSCAR =  O  C  N  H                              

 Startparameter for this run:
   NWRITE =      0    write-flag & timer
   PREC   = normal    normal or accurate (medium, high low for compatibility)
   ISTART =      0    job   : 0-new  1-cont  2-samecut
   ICHARG =      2    charge: 1-file 2-atom 10-const
   ISPIN  =      1    spin polarized calculation?
   LNONCOLLINEAR =      F non collinear calculations
   LSORBIT =      F    spin-orbit coupling
   INIWAV =      1    electr: 0-lowe 1-rand  2-diag
   LASPH  =      F    aspherical Exc in radial PAW
   METAGGA=      F    non-selfconsistent MetaGGA calc.

 Electronic Relaxation 1
   ENCUT  =  450.0 eV  33.07 Ry    5.75 a.u.  34.59 36.32 38.05*2*pi/ulx,y,z
   ENINI  =  450.0     initial cutoff
   ENAUG  =  644.9 eV  augmentation charge cutoff
   NELM   =     50;   NELMIN=  5; NELMDL= -7     # of ELM steps 
   EDIFF  = 0.1E-04   stopping-criterion for ELM
   LREAL  =      T    real-space projection
   NLSPLINE    = F    spline interpolate recip. space projectors
   LCOMPAT=      F    compatible to vasp.4.4
   GGA_COMPAT  = T    GGA compatible to vasp.4.4-vasp.4.6
   LMAXPAW     = -100 max onsite density
   LMAXMIX     =    2 max onsite mixed and CHGCAR
   VOSKOWN=      0    Vosko Wilk Nusair interpolation
   ROPT   =   -0.00050  -0.00050  -0.00050  -0.00050
 Ionic relaxation
   EDIFFG = -.2E-01   stopping-criterion for IOM
   NSW    =    300    number of steps for IOM
   NBLOCK =      1;   KBLOCK =    300    inner block; outer block 
   IBRION =      2    ionic relax: 0-MD 1-quasi-New 2-CG
   NFREE  =      2    steps in history (QN), initial steepest desc. (CG)
   ISIF   =      2    stress and relaxation
   IWAVPR =     11    prediction:  0-non 1-charg 2-wave 3-comb
   ISYM   =      2    0-nonsym 1-usesym 2-fastsym
   LCORR  =      T    Harris-Foulkes like correction to forces

   POTIM  = 0.1500    time-step for ionic-motion
   TEIN   =    0.0    initial temperature
   TEBEG  =    0.0;   TEEND  =   0.0 temperature during run
   SMASS  =  -3.00    Nose mass-parameter (am)
   estimated Nose-frequenzy (Omega)   =  0.10E-29 period in steps =****** mass=  -0.914E-26a.u.
   SCALEE = 1.0000    scale energy and forces
   NPACO  =    256;   APACO  = 16.0  distance and # of slots for P.C.
   PSTRESS=    0.0 pullay stress

  Mass of Ions in am
   POMASS =  16.00 12.01 14.00  1.00
  Ionic Valenz
   ZVAL   =   6.00  4.00  5.00  1.00
  Atomic Wigner-Seitz radii
   RWIGS  =  -1.00 -1.00 -1.00 -1.00
  virtual crystal weights 
   VCA    =   1.00  1.00  1.00  1.00
   NELECT =     104.0000    total number of electrons
   NUPDOWN=      -1.0000    fix difference up-down

 DOS related values:
   EMIN   =  10.00;   EMAX   =-10.00  energy-range for DOS
   EFERMI =   0.00
   ISMEAR =     0;   SIGMA  =   0.03  broadening in eV -4-tet -1-fermi 0-gaus

 Electronic relaxation 2 (details)
   IALGO  =     68    algorithm
   LDIAG  =      T    sub-space diagonalisation (order eigenvalues)
   LSUBROT=      F    optimize rotation matrix (better conditioning)
   TURBO    =      0    0=normal 1=particle mesh
   IRESTART =      0    0=no restart 2=restart with 2 vectors
   NREBOOT  =      0    no. of reboots
   NMIN     =      0    reboot dimension
   EREF     =   0.00    reference energy to select bands
   IMIX   =      4    mixing-type and parameters
     AMIX     =   0.40;   BMIX     =  1.00
     AMIX_MAG =   1.60;   BMIX_MAG =  1.00
     AMIN     =   0.10
     WC   =   100.;   INIMIX=   1;  MIXPRE=   1;  MAXMIX= -45

 Intra band minimization:
   WEIMIN = 0.0010     energy-eigenvalue tresh-hold
   EBREAK =  0.35E-07  absolut break condition
   DEPER  =   0.30     relativ break condition  

   TIME   =   0.40     timestep for ELM

  volume/ion in A,a.u.               =     243.16      1640.91
  Fermi-wavevector in a.u.,A,eV,Ry     =   0.366884  0.693310  1.831396  0.134604
  Thomas-Fermi vector in A             =   1.291571
 
 Write flags
   LWAVE        =      F    write WAVECAR
   LDOWNSAMPLE  =      F    k-point downsampling of WAVECAR
   LCHARG       =      F    write CHGCAR
   LVTOT        =      F    write LOCPOT, total local potential
   LVHAR        =      F    write LOCPOT, Hartree potential only
   LELF         =      F    write electronic localiz. function (ELF)
   LORBIT       =      0    0 simple, 1 ext, 2 COOP (PROOUT), +10 PAW based schemes


 Dipole corrections
   LMONO  =      F    monopole corrections only (constant potential shift)
   LDIPOL =      F    correct potential (dipole corrections)
   IDIPOL =      0    1-x, 2-y, 3-z, 4-all directions 
   EPSILON=  1.0000000 bulk dielectric constant

 Exchange correlation treatment:
   GGA     =    PE    GGA type
   LEXCH   =     8    internal setting for exchange type
   VOSKOWN=      0    Vosko Wilk Nusair interpolation
   LHFCALC =     F    Hartree Fock is set to
   LHFONE  =     F    Hartree Fock one center treatment
   AEXX    =    0.0000 exact exchange contribution

 Linear response parameters
   LEPSILON=     F    determine dielectric tensor
   LRPA    =     F    only Hartree local field effects (RPA)
   LNABLA  =     F    use nabla operator in PAW spheres
   LVEL    =     F    velocity operator in full k-point grid
   LINTERFAST=   F  fast interpolation
   KINTER  =     0    interpolate to denser k-point grid
   CSHIFT  =0.1000    complex shift for real part using Kramers Kronig
   OMEGAMAX=  -1.0    maximum frequency
   DEG_THRESHOLD= 0.2000000E-02 threshold for treating states as degnerate
   RTIME   =   -0.100 relaxation time in fs
  (WPLASMAI=    0.000 imaginary part of plasma frequency in eV, 0.658/RTIME)
   DFIELD  = 0.0000000 0.0000000 0.0000000 field for delta impulse in time
 
 Orbital magnetization related:
   ORBITALMAG=     F  switch on orbital magnetization
   LCHIMAG   =     F  perturbation theory with respect to B field
   DQ        =  0.001000  dq finite difference perturbation B field
   LLRAUG    =     F  two centre corrections for induced B field



--------------------------------------------------------------------------------------------------------


 conjugate gradient relaxation of ions
   using selective dynamics as specified on POSCAR
 charge density and potential will be updated during run
 non-spin polarized calculation
 RMM-DIIS sequential band-by-band and
  variant of blocked Davidson during initial phase
 perform sub-space diagonalisation
    before iterative eigenvector-optimisation
 modified Broyden-mixing scheme, WC =      100.0
 initial mixing is a Kerker type mixing with AMIX =  0.4000 and BMIX =      1.0000
 Hartree-type preconditioning will be used
 using additional bands           20
 real space projection scheme for non local part
 use partial core corrections
 calculate Harris-corrections to forces 
   (improved forces if not selfconsistent)
 use gradient corrections 
 use of overlap-Matrix (Vanderbilt PP)
 Gauss-broadening in eV      SIGMA  =   0.03


--------------------------------------------------------------------------------------------------------


  energy-cutoff  :      450.00
  volume of cell :     9240.00
      direct lattice vectors                 reciprocal lattice vectors
    20.000000000  0.000000000  0.000000000     0.050000000  0.000000000  0.000000000
     0.000000000 21.000000000  0.000000000     0.000000000  0.047619048  0.000000000
     0.000000000  0.000000000 22.000000000     0.000000000  0.000000000  0.045454545

  length of vectors
    20.000000000 21.000000000 22.000000000     0.050000000  0.047619048  0.045454545


 
 k-points in units of 2pi/SCALE and weight: K-POINTS                                
   0.00000000  0.00000000  0.00000000       1.000
 
 k-points in reciprocal lattice and weights: K-POINTS                                
   0.00000000  0.00000000  0.00000000       1.000
 
 position of ions in fractional coordinates (direct lattice) 
   0.52899903  0.59742041  0.49011239
   0.80001526  0.32337765  0.52312103
   0.74427378  0.37117862  0.51886202
   0.68071360  0.35414209  0.49808392
   0.62855706  0.39783853  0.49297736
   0.63887056  0.46136329  0.51056602
   0.70162349  0.47919457  0.53350392
   0.75455588  0.43524741  0.53663458
   0.58265332  0.56844594  0.48850710
   0.60987430  0.70396709  0.44403860
   0.63158202  0.76522292  0.42933092
   0.69891135  0.78156584  0.42303489
   0.74704359  0.73302212  0.43185988
   0.72609531  0.67125319  0.44669764
   0.65803624  0.65636345  0.45309236
   0.72024739  0.84837862  0.40786873
   0.81733920  0.45535325  0.55608211
   0.58522597  0.50466350  0.50709858
   0.64246977  0.59294020  0.46817246
   0.81521210  0.74735504  0.42901145
   0.67203701  0.30481148  0.48446128
   0.58005497  0.38315843  0.47516453
   0.70903728  0.52703076  0.55178830
   0.84815422  0.42151113  0.57324230
   0.81869495  0.49669029  0.57987561
   0.53848482  0.48608949  0.51005158
   0.84369212  0.33759604  0.49572608
   0.78355534  0.27648950  0.50693624
   0.81774094  0.31707181  0.57030513
   0.68151546  0.56198733  0.46688390
   0.59401557  0.80228782  0.42231633
   0.76369209  0.63410927  0.45382927
   0.75289259  0.86862637  0.44336254
   0.74821528  0.85086469  0.36462899
   0.67668688  0.87976726  0.40321276
   0.82779163  0.78546292  0.40309711
   0.84612873  0.70975242  0.42212992
   0.55713223  0.69279568  0.44883061
 
 position of ions in cartesian coordinates  (Angst):
  10.57998070 12.54582863 10.78247249
  16.00030514  6.79093058 11.50866261
  14.88547554  7.79475108 11.41496450
  13.61427194  7.43698392 10.95784631
  12.57114116  8.35460915 10.84550197
  12.77741127  9.68862918 11.23245249
  14.03246986 10.06308597 11.73708625
  15.09111770  9.14019566 11.80596074
  11.65306650 11.93736478 10.74715630
  12.19748598 14.78330881  9.76884918
  12.63164044 16.06968140  9.44528023
  13.97822696 16.41288261  9.30676764
  14.94087182 15.39346459  9.50091725
  14.52190617 14.09631701  9.82734804
  13.16072488 13.78363236  9.96803191
  14.40494784 17.81595099  8.97311195
  16.34678402  9.56241828 12.23380637
  11.70451949 10.59793344 11.15616879
  12.84939542 12.45174415 10.29979408
  16.30424208 15.69445591  9.43825197
  13.44074025  6.40104105 10.65814819
  11.60109943  8.04632697 10.45361968
  14.18074552 11.06764589 12.13934249
  16.96308448  8.85173383 12.61133067
  16.37389896 10.43049612 12.75726335
  10.76969647 10.20787930 11.22113481
  16.87384235  7.08951675 10.90597374
  15.67110681  5.80627940 11.15259722
  16.35481879  6.65850802 12.54671286
  13.63030918 11.80173393 10.27144589
  11.88031146 16.84804424  9.29095918
  15.27384187 13.31629476  9.98424403
  15.05785172 18.24115383  9.75397595
  14.96430556 17.86815840  8.02183771
  13.53373759 18.47511242  8.87068079
  16.55583259 16.49472131  8.86813640
  16.92257464 14.90480076  9.28685817
  11.14264452 14.54870925  9.87427352
 


--------------------------------------------------------------------------------------------------------


 k-point  1 :   0.0000 0.0000 0.0000  plane waves:  200221

 maximum and minimum number of plane-waves per node :    200221   200221

 maximum number of plane-waves:    200221
 maximum index in each direction: 
   IXMAX=   34   IYMAX=   36   IZMAX=   38
   IXMIN=  -34   IYMIN=  -36   IZMIN=  -38


 serial   3D FFT for wavefunctions
 parallel 3D FFT for charge:
    minimum data exchange during FFTs selected (reduces bandwidth)


 total amount of memory used by VASP MPI-rank0   219737. kBytes
=======================================================================

   base      :      30000. kBytes
   nonlr-proj:       3387. kBytes
   fftplans  :      38602. kBytes
   grid      :     128386. kBytes
   one-center:        116. kBytes
   wavefun   :      19246. kBytes
 
     INWAV:  cpu time    0.0000: real time    0.0002
 Broyden mixing: mesh for mixing (old mesh)
   NGX = 69   NGY = 73   NGZ = 77
  (NGX  =216   NGY  =224   NGZ  =240)
  gives a total of 387849 points

 initial charge density was supplied:
 charge density of overlapping atoms calculated
 number of electron     104.0000000 magnetization 
 keeping initial charge density in first step


--------------------------------------------------------------------------------------------------------


 Maximum index for non-local projection operator         1192
 Maximum index for augmentation-charges          179 (set IRDMAX)


--------------------------------------------------------------------------------------------------------


 First call to EWALD:  gamma=   0.084
 Maximum number of real-space cells 3x 3x 3
 Maximum number of reciprocal cells 3x 3x 3

    FEWALD:  cpu time    0.0040: real time    0.0033


--------------------------------------- Iteration      1(   1)  ---------------------------------------


    POTLOK:  cpu time    1.7347: real time    1.7403
    SETDIJ:  cpu time    0.0080: real time    0.0082
     EDDAV:  cpu time    7.8438: real time    7.8642
       DOS:  cpu time    0.0000: real time    0.0007
    --------------------------------------------
      LOOP:  cpu time    9.5865: real time    9.6135

 eigenvalue-minimisations  :   192
 total energy-change (2. order) : 0.8109002E+03  (-0.2434049E+04)
 number of electron     104.0000000 magnetization 
 augmentation part      104.0000000 magnetization 

 Free energy of the ion-electron system (eV)
  ---------------------------------------------------
  alpha Z        PSCENC =         5.19163790
  Ewald energy   TEWEN  =     10418.64026339
  -Hartree energ DENC   =    -13128.03146968
  -exchange      EXHF   =         0.00000000
  -V(xc)+E(xc)   XCENC  =       345.84239752
  PAW double counting   =      2832.52359289    -2847.78708716
  entropy T*S    EENTRO =        -0.00496395
  eigenvalues    EBANDS =      -737.78306063
  atomic energy  EATOM  =      3922.30888065
  Solvation  Ediel_sol  =         0.00000000
  ---------------------------------------------------
  free energy    TOTEN  =       810.90019093 eV

  energy without entropy =      810.90515488  energy(sigma->0) =      810.90267290


--------------------------------------------------------------------------------------------------------




--------------------------------------- Iteration      1(   2)  ---------------------------------------


     EDDAV:  cpu time    9.3996: real time    9.4226
       DOS:  cpu time    0.0010: real time    0.0006
    --------------------------------------------
      LOOP:  cpu time    9.4006: real time    9.4232

 eigenvalue-minimisations  :   240
 total energy-change (2. order) :-0.5790812E+03  (-0.5385691E+03)
 number of electron     104.0000000 magnetization 
 augmentation part      104.0000000 magnetization 

 Free energy of the ion-electron system (eV)
  ---------------------------------------------------
  alpha Z        PSCENC =         5.19163790
  Ewald energy   TEWEN  =     10418.64026339
  -Hartree energ DENC   =    -13128.03146968
  -exchange      EXHF   =         0.00000000
  -V(xc)+E(xc)   XCENC  =       345.84239752
  PAW double counting   =      2832.52359289    -2847.78708716
  entropy T*S    EENTRO =        -0.00000480
  eigenvalues    EBANDS =     -1316.86925685
  atomic energy  EATOM  =      3922.30888065
  Solvation  Ediel_sol  =         0.00000000
  ---------------------------------------------------
  free energy    TOTEN  =       231.81895386 eV

  energy without entropy =      231.81895866  energy(sigma->0) =      231.81895626


--------------------------------------------------------------------------------------------------------




--------------------------------------- Iteration      1(   3)  ---------------------------------------


     EDDAV:  cpu time    8.2627: real time    8.2848
       DOS:  cpu time    0.0010: real time    0.0005
    --------------------------------------------
      LOOP:  cpu time    8.2637: real time    8.2853

 eigenvalue-minimisations  :   204
 total energy-change (2. order) :-0.4227992E+03  (-0.4171992E+03)
 number of electron     104.0000000 magnetization 
 augmentation part      104.0000000 magnetization 

 Free energy of the ion-electron system (eV)
  ---------------------------------------------------
  alpha Z        PSCENC =         5.19163790
  Ewald energy   TEWEN  =     10418.64026339
  -Hartree energ DENC   =    -13128.03146968
  -exchange      EXHF   =         0.00000000
  -V(xc)+E(xc)   XCENC  =       345.84239752
  PAW double counting   =      2832.52359289    -2847.78708716
  entropy T*S    EENTRO =        -0.00000000
  eigenvalues    EBANDS =     -1739.66843476
  atomic energy  EATOM  =      3922.30888065
  Solvation  Ediel_sol  =         0.00000000
  ---------------------------------------------------
  free energy    TOTEN  =      -190.98021925 eV

  energy without entropy =     -190.98021925  energy(sigma->0) =     -190.98021925


--------------------------------------------------------------------------------------------------------




--------------------------------------- Iteration      1(   4)  ---------------------------------------


     EDDAV:  cpu time    7.4829: real time    7.5070
       DOS:  cpu time    0.0000: real time    0.0006
    --------------------------------------------
      LOOP:  cpu time    7.4829: real time    7.5076

 eigenvalue-minimisations  :   180
 total energy-change (2. order) :-0.7432020E+02  (-0.7420210E+02)
 number of electron     104.0000000 magnetization 
 augmentation part      104.0000000 magnetization 

 Free energy of the ion-electron system (eV)
  ---------------------------------------------------
  alpha Z        PSCENC =         5.19163790
  Ewald energy   TEWEN  =     10418.64026339
  -Hartree energ DENC   =    -13128.03146968
  -exchange      EXHF   =         0.00000000
  -V(xc)+E(xc)   XCENC  =       345.84239752
  PAW double counting   =      2832.52359289    -2847.78708716
  entropy T*S    EENTRO =        -0.00000000
  eigenvalues    EBANDS =     -1813.98863270
  atomic energy  EATOM  =      3922.30888065
  Solvation  Ediel_sol  =         0.00000000
  ---------------------------------------------------
  free energy    TOTEN  =      -265.30041719 eV

  energy without entropy =     -265.30041719  energy(sigma->0) =     -265.30041719


--------------------------------------------------------------------------------------------------------




--------------------------------------- Iteration      1(   5)  ---------------------------------------


     EDDAV:  cpu time    7.4609: real time    7.4820
       DOS:  cpu time    0.0010: real time    0.0006
    --------------------------------------------
      LOOP:  cpu time    7.4619: real time    7.4825

 eigenvalue-minimisations  :   180
 total energy-change (2. order) :-0.1604535E+01  (-0.1592395E+01)
 number of electron     104.0000000 magnetization 
 augmentation part      104.0000000 magnetization 

 Free energy of the ion-electron system (eV)
  ---------------------------------------------------
  alpha Z        PSCENC =         5.19163790
  Ewald energy   TEWEN  =     10418.64026339
  -Hartree energ DENC   =    -13128.03146968
  -exchange      EXHF   =         0.00000000
  -V(xc)+E(xc)   XCENC  =       345.84239752
  PAW double counting   =      2832.52359289    -2847.78708716
  entropy T*S    EENTRO =        -0.00000000
  eigenvalues    EBANDS =     -1815.59316774
  atomic energy  EATOM  =      3922.30888065
  Solvation  Ediel_sol  =         0.00000000
  ---------------------------------------------------
  free energy    TOTEN  =      -266.90495223 eV

  energy without entropy =     -266.90495223  energy(sigma->0) =     -266.90495223


--------------------------------------------------------------------------------------------------------




--------------------------------------- Iteration      1(   6)  ---------------------------------------


     EDDAV:  cpu time    8.6177: real time    8.6419
       DOS:  cpu time    0.0000: real time    0.0006
    --------------------------------------------
      LOOP:  cpu time    8.6177: real time    8.6425

 eigenvalue-minimisations  :   216
 total energy-change (2. order) :-0.3612406E-01  (-0.3602886E-01)
 number of electron     104.0000000 magnetization 
 augmentation part      104.0000000 magnetization 

 Free energy of the ion-electron system (eV)
  ---------------------------------------------------
  alpha Z        PSCENC =         5.19163790
  Ewald energy   TEWEN  =     10418.64026339
  -Hartree energ DENC   =    -13128.03146968
  -exchange      EXHF   =         0.00000000
  -V(xc)+E(xc)   XCENC  =       345.84239752
  PAW double counting   =      2832.52359289    -2847.78708716
  entropy T*S    EENTRO =        -0.00000000
  eigenvalues    EBANDS =     -1815.62929181
  atomic energy  EATOM  =      3922.30888065
  Solvation  Ediel_sol  =         0.00000000
  ---------------------------------------------------
  free energy    TOTEN  =      -266.94107630 eV

  energy without entropy =     -266.94107630  energy(sigma->0) =     -266.94107630


--------------------------------------------------------------------------------------------------------




--------------------------------------- Iteration      1(   7)  ---------------------------------------


     EDDAV:  cpu time    7.8798: real time    7.9016
       DOS:  cpu time    0.0010: real time    0.0006
    CHARGE:  cpu time    0.6419: real time    0.6435
    MIXING:  cpu time    0.0390: real time    0.0398
    --------------------------------------------
      LOOP:  cpu time    8.5617: real time    8.5857

 eigenvalue-minimisations  :   192
 total energy-change (2. order) :-0.5647309E-03  (-0.5640548E-03)
 number of electron     104.0000030 magnetization 
 augmentation part        4.0416803 magnetization 

 Broyden mixing:
  rms(total) = 0.26225E+01    rms(broyden)= 0.26213E+01
  rms(prec ) = 0.28227E+01
  weight for this iteration     100.00

 Free energy of the ion-electron system (eV)
  ---------------------------------------------------
  alpha Z        PSCENC =         5.19163790
  Ewald energy   TEWEN  =     10418.64026339
  -Hartree energ DENC   =    -13128.03146968
  -exchange      EXHF   =         0.00000000
  -V(xc)+E(xc)   XCENC  =       345.84239752
  PAW double counting   =      2832.52359289    -2847.78708716
  entropy T*S    EENTRO =        -0.00000000
  eigenvalues    EBANDS =     -1815.62985654
  atomic energy  EATOM  =      3922.30888065
  Solvation  Ediel_sol  =         0.00000000
  ---------------------------------------------------
  free energy    TOTEN  =      -266.94164103 eV

  energy without entropy =     -266.94164103  energy(sigma->0) =     -266.94164103


--------------------------------------------------------------------------------------------------------




--------------------------------------- Iteration      1(   8)  ---------------------------------------


    POTLOK:  cpu time    1.5958: real time    1.6010
    SETDIJ:  cpu time    0.0080: real time    0.0085
    EDDIAG:  cpu time    1.2648: real time    1.2686
  RMM-DIIS:  cpu time    4.3273: real time    4.3389
    ORTHCH:  cpu time    0.2450: real time    0.2465
       DOS:  cpu time    0.0010: real time    0.0005
    CHARGE:  cpu time    0.6329: real time    0.6343
    MIXING:  cpu time    0.0420: real time    0.0427
    --------------------------------------------
      LOOP:  cpu time    8.1168: real time    8.1409

 eigenvalue-minimisations  :   144
 total energy-change (2. order) : 0.1949145E+02  (-0.3802595E+01)
 number of electron     104.0000023 magnetization 
 augmentation part        3.6594993 magnetization 

 Broyden mixing:
  rms(total) = 0.13872E+01    rms(broyden)= 0.13870E+01
  rms(prec ) = 0.14695E+01
  weight for this iteration     100.00

 eigenvalues of (default mixing * dielectric matrix)
  average eigenvalue GAMMA=   1.4177
  1.4177

 Free energy of the ion-electron system (eV)
  ---------------------------------------------------
  alpha Z        PSCENC =         5.19163790
  Ewald energy   TEWEN  =     10418.64026339
  -Hartree energ DENC   =    -13337.77341639
  -exchange      EXHF   =         0.00000000
  -V(xc)+E(xc)   XCENC  =       355.88856484
  PAW double counting   =      4875.65431618    -4893.34645377
  entropy T*S    EENTRO =        -0.00000000
  eigenvalues    EBANDS =     -1594.01398152
  atomic energy  EATOM  =      3922.30888065
  Solvation  Ediel_sol  =         0.00000000
  ---------------------------------------------------
  free energy    TOTEN  =      -247.45018872 eV

  energy without entropy =     -247.45018872  energy(sigma->0) =     -247.45018872


--------------------------------------------------------------------------------------------------------




--------------------------------------- Iteration      1(   9)  ---------------------------------------


    POTLOK:  cpu time    1.6058: real time    1.6100
    SETDIJ:  cpu time    0.0070: real time    0.0078
    EDDIAG:  cpu time    1.2668: real time    1.2699
  RMM-DIIS:  cpu time    4.3373: real time    4.3494
    ORTHCH:  cpu time    0.2510: real time    0.2521
       DOS:  cpu time    0.0010: real time    0.0004
    CHARGE:  cpu time    0.6309: real time    0.6324
    MIXING:  cpu time    0.0440: real time    0.0447
    --------------------------------------------
      LOOP:  cpu time    8.1438: real time    8.1666

 eigenvalue-minimisations  :   144
 total energy-change (2. order) : 0.4165937E+01  (-0.1303987E+01)
 number of electron     104.0000021 magnetization 
 augmentation part        3.5198630 magnetization 

 Broyden mixing:
  rms(total) = 0.66748E+00    rms(broyden)= 0.66735E+00
  rms(prec ) = 0.69481E+00
  weight for this iteration     100.00

 eigenvalues of (default mixing * dielectric matrix)
  average eigenvalue GAMMA=   1.6465
  1.2248  2.0683

 Free energy of the ion-electron system (eV)
  ---------------------------------------------------
  alpha Z        PSCENC =         5.19163790
  Ewald energy   TEWEN  =     10418.64026339
  -Hartree energ DENC   =    -13485.08935867
  -exchange      EXHF   =         0.00000000
  -V(xc)+E(xc)   XCENC  =       362.71425126
  PAW double counting   =      7233.12729076    -7251.91596088
  entropy T*S    EENTRO =        -0.00000000
  eigenvalues    EBANDS =     -1448.26125622
  atomic energy  EATOM  =      3922.30888065
  Solvation  Ediel_sol  =         0.00000000
  ---------------------------------------------------
  free energy    TOTEN  =      -243.28425181 eV

  energy without entropy =     -243.28425181  energy(sigma->0) =     -243.28425181


--------------------------------------------------------------------------------------------------------




--------------------------------------- Iteration      1(  10)  ---------------------------------------


    POTLOK:  cpu time    1.6158: real time    1.6199
    SETDIJ:  cpu time    0.0070: real time    0.0079
    EDDIAG:  cpu time    1.2648: real time    1.2679
  RMM-DIIS:  cpu time    4.5063: real time    4.5196
    ORTHCH:  cpu time    0.2440: real time    0.2442
       DOS:  cpu time    0.0010: real time    0.0008
    CHARGE:  cpu time    0.6299: real time    0.6317
    MIXING:  cpu time    0.0530: real time    0.0534
    --------------------------------------------
      LOOP:  cpu time    8.3217: real time    8.3453

 eigenvalue-minimisations  :   146
 total energy-change (2. order) : 0.6470286E+00  (-0.2085938E+00)
 number of electron     104.0000020 magnetization 
 augmentation part        3.4715980 magnetization 

 Broyden mixing:
  rms(total) = 0.20972E+00    rms(broyden)= 0.20965E+00
  rms(prec ) = 0.22772E+00
  weight for this iteration     100.00

 eigenvalues of (default mixing * dielectric matrix)
  average eigenvalue GAMMA=   1.5926
  2.2841  0.9497  1.5439

 Free energy of the ion-electron system (eV)
  ---------------------------------------------------
  alpha Z        PSCENC =         5.19163790
  Ewald energy   TEWEN  =     10418.64026339
  -Hartree energ DENC   =    -13553.34897829
  -exchange      EXHF   =         0.00000000
  -V(xc)+E(xc)   XCENC  =       365.88649832
  PAW double counting   =      8892.50064766    -8911.42124872
  entropy T*S    EENTRO =        -0.00000000
  eigenvalues    EBANDS =     -1382.39492414
  atomic energy  EATOM  =      3922.30888065
  Solvation  Ediel_sol  =         0.00000000
  ---------------------------------------------------
  free energy    TOTEN  =      -242.63722322 eV

  energy without entropy =     -242.63722322  energy(sigma->0) =     -242.63722322


--------------------------------------------------------------------------------------------------------




--------------------------------------- Iteration      1(  11)  ---------------------------------------


    POTLOK:  cpu time    1.6138: real time    1.6184
    SETDIJ:  cpu time    0.0090: real time    0.0084
    EDDIAG:  cpu time    1.2658: real time    1.2693
  RMM-DIIS:  cpu time    4.5283: real time    4.5425
    ORTHCH:  cpu time    0.2430: real time    0.2437
       DOS:  cpu time    0.0010: real time    0.0005
    CHARGE:  cpu time    0.6289: real time    0.6310
    MIXING:  cpu time    0.0530: real time    0.0531
    --------------------------------------------
      LOOP:  cpu time    8.3427: real time    8.3668

 eigenvalue-minimisations  :   146
 total energy-change (2. order) : 0.1071065E+00  (-0.1883540E-01)
 number of electron     104.0000021 magnetization 
 augmentation part        3.4691888 magnetization 

 Broyden mixing:
  rms(total) = 0.65262E-01    rms(broyden)= 0.65241E-01
  rms(prec ) = 0.86944E-01
  weight for this iteration     100.00

 eigenvalues of (default mixing * dielectric matrix)
  average eigenvalue GAMMA=   1.5930
  2.1032  2.1032  0.9197  1.2457

 Free energy of the ion-electron system (eV)
  ---------------------------------------------------
  alpha Z        PSCENC =         5.19163790
  Ewald energy   TEWEN  =     10418.64026339
  -Hartree energ DENC   =    -13570.55022611
  -exchange      EXHF   =         0.00000000
  -V(xc)+E(xc)   XCENC  =       366.41261675
  PAW double counting   =      9299.61435567    -9318.37609646
  entropy T*S    EENTRO =        -0.00000000
  eigenvalues    EBANDS =     -1365.77154854
  atomic energy  EATOM  =      3922.30888065
  Solvation  Ediel_sol  =         0.00000000
  ---------------------------------------------------
  free energy    TOTEN  =      -242.53011675 eV

  energy without entropy =     -242.53011675  energy(sigma->0) =     -242.53011675


--------------------------------------------------------------------------------------------------------




--------------------------------------- Iteration      1(  12)  ---------------------------------------


    POTLOK:  cpu time    1.6188: real time    1.6258
    SETDIJ:  cpu time    0.0080: real time    0.0082
    EDDIAG:  cpu time    1.2668: real time    1.2702
  RMM-DIIS:  cpu time    4.4533: real time    4.4644
    ORTHCH:  cpu time    0.2440: real time    0.2447
       DOS:  cpu time    0.0010: real time    0.0002
    CHARGE:  cpu time    0.6299: real time    0.6320
    MIXING:  cpu time    0.0550: real time    0.0555
    --------------------------------------------
      LOOP:  cpu time    8.2767: real time    8.3010

 eigenvalue-minimisations  :   146
 total energy-change (2. order) : 0.2368501E-01  (-0.3819688E-02)
 number of electron     104.0000020 magnetization 
 augmentation part        3.4666244 magnetization 

 Broyden mixing:
  rms(total) = 0.30071E-01    rms(broyden)= 0.30061E-01
  rms(prec ) = 0.52026E-01
  weight for this iteration     100.00

 eigenvalues of (default mixing * dielectric matrix)
  average eigenvalue GAMMA=   1.7024
  2.3622  2.3622  0.9160  1.5176  1.3539

 Free energy of the ion-electron system (eV)
  ---------------------------------------------------
  alpha Z        PSCENC =         5.19163790
  Ewald energy   TEWEN  =     10418.64026339
  -Hartree energ DENC   =    -13581.92226713
  -exchange      EXHF   =         0.00000000
  -V(xc)+E(xc)   XCENC  =       366.53460527
  PAW double counting   =      9313.91540751    -9332.60463180
  entropy T*S    EENTRO =        -0.00000000
  eigenvalues    EBANDS =     -1354.57032753
  atomic energy  EATOM  =      3922.30888065
  Solvation  Ediel_sol  =         0.00000000
  ---------------------------------------------------
  free energy    TOTEN  =      -242.50643174 eV

  energy without entropy =     -242.50643174  energy(sigma->0) =     -242.50643174


--------------------------------------------------------------------------------------------------------




--------------------------------------- Iteration      1(  13)  ---------------------------------------


    POTLOK:  cpu time    1.6298: real time    1.6338
    SETDIJ:  cpu time    0.0080: real time    0.0082
    EDDIAG:  cpu time    1.2678: real time    1.2711
  RMM-DIIS:  cpu time    4.3893: real time    4.4000
    ORTHCH:  cpu time    0.2430: real time    0.2442
       DOS:  cpu time    0.0010: real time    0.0006
    CHARGE:  cpu time    0.6269: real time    0.6285
    MIXING:  cpu time    0.0610: real time    0.0618
    --------------------------------------------
      LOOP:  cpu time    8.2267: real time    8.2483

 eigenvalue-minimisations  :   145
 total energy-change (2. order) : 0.1039711E-01  (-0.2337217E-02)
 number of electron     104.0000020 magnetization 
 augmentation part        3.4635449 magnetization 

 Broyden mixing:
  rms(total) = 0.15868E-01    rms(broyden)= 0.15864E-01
  rms(prec ) = 0.29913E-01
  weight for this iteration     100.00

 eigenvalues of (default mixing * dielectric matrix)
  average eigenvalue GAMMA=   1.7378
  2.7064  2.7064  0.9364  1.5484  1.2645  1.2645

 Free energy of the ion-electron system (eV)
  ---------------------------------------------------
  alpha Z        PSCENC =         5.19163790
  Ewald energy   TEWEN  =     10418.64026339
  -Hartree energ DENC   =    -13600.31838886
  -exchange      EXHF   =         0.00000000
  -V(xc)+E(xc)   XCENC  =       366.76718998
  PAW double counting   =      9295.63766983    -9314.31201415
  entropy T*S    EENTRO =        -0.00000000
  eigenvalues    EBANDS =     -1336.41127338
  atomic energy  EATOM  =      3922.30888065
  Solvation  Ediel_sol  =         0.00000000
  ---------------------------------------------------
  free energy    TOTEN  =      -242.49603463 eV

  energy without entropy =     -242.49603463  energy(sigma->0) =     -242.49603463


--------------------------------------------------------------------------------------------------------




--------------------------------------- Iteration      1(  14)  ---------------------------------------


    POTLOK:  cpu time    1.6298: real time    1.6341
    SETDIJ:  cpu time    0.0100: real time    0.0093
    EDDIAG:  cpu time    1.2668: real time    1.2704
  RMM-DIIS:  cpu time    4.3323: real time    4.3433
    ORTHCH:  cpu time    0.2430: real time    0.2441
       DOS:  cpu time    0.0080: real time    0.0075
    CHARGE:  cpu time    0.6309: real time    0.6329
    MIXING:  cpu time    0.0640: real time    0.0640
    --------------------------------------------
      LOOP:  cpu time    8.1848: real time    8.2054

 eigenvalue-minimisations  :   144
 total energy-change (2. order) :-0.3095409E-02  (-0.1282170E-02)
 number of electron     104.0000020 magnetization 
 augmentation part        3.4619014 magnetization 

 Broyden mixing:
  rms(total) = 0.10634E-01    rms(broyden)= 0.10627E-01
  rms(prec ) = 0.18080E-01
  weight for this iteration     100.00

 eigenvalues of (default mixing * dielectric matrix)
  average eigenvalue GAMMA=   1.8714
  4.0226  2.3823  1.7932  1.7932  0.9661  0.9661  1.1762

 Free energy of the ion-electron system (eV)
  ---------------------------------------------------
  alpha Z        PSCENC =         5.19163790
  Ewald energy   TEWEN  =     10418.64026339
  -Hartree energ DENC   =    -13612.82676382
  -exchange      EXHF   =         0.00000000
  -V(xc)+E(xc)   XCENC  =       366.90731529
  PAW double counting   =      9276.65103408    -9295.31536932
  entropy T*S    EENTRO =        -0.00000000
  eigenvalues    EBANDS =     -1324.05612822
  atomic energy  EATOM  =      3922.30888065
  Solvation  Ediel_sol  =         0.00000000
  ---------------------------------------------------
  free energy    TOTEN  =      -242.49913004 eV

  energy without entropy =     -242.49913004  energy(sigma->0) =     -242.49913004


--------------------------------------------------------------------------------------------------------




--------------------------------------- Iteration      1(  15)  ---------------------------------------


    POTLOK:  cpu time    1.6318: real time    1.6365
    SETDIJ:  cpu time    0.0080: real time    0.0077
    EDDIAG:  cpu time    1.2728: real time    1.2767
  RMM-DIIS:  cpu time    4.4053: real time    4.4163
    ORTHCH:  cpu time    0.2470: real time    0.2477
       DOS:  cpu time    0.0000: real time    0.0005
    CHARGE:  cpu time    0.6299: real time    0.6305
    MIXING:  cpu time    0.0690: real time    0.0690
    --------------------------------------------
      LOOP:  cpu time    8.2637: real time    8.2849

 eigenvalue-minimisations  :   145
 total energy-change (2. order) :-0.1029827E-01  (-0.5762686E-03)
 number of electron     104.0000020 magnetization 
 augmentation part        3.4602140 magnetization 

 Broyden mixing:
  rms(total) = 0.55427E-02    rms(broyden)= 0.55386E-02
  rms(prec ) = 0.97976E-02
  weight for this iteration     100.00

 eigenvalues of (default mixing * dielectric matrix)
  average eigenvalue GAMMA=   1.9930
  5.0834  2.4520  1.9883  1.7631  1.4856  0.9542  0.9542  1.2630

 Free energy of the ion-electron system (eV)
  ---------------------------------------------------
  alpha Z        PSCENC =         5.19163790
  Ewald energy   TEWEN  =     10418.64026339
  -Hartree energ DENC   =    -13620.77870464
  -exchange      EXHF   =         0.00000000
  -V(xc)+E(xc)   XCENC  =       366.97741205
  PAW double counting   =      9266.45570278    -9285.11913824
  entropy T*S    EENTRO =        -0.00000000
  eigenvalues    EBANDS =     -1316.18548219
  atomic energy  EATOM  =      3922.30888065
  Solvation  Ediel_sol  =         0.00000000
  ---------------------------------------------------
  free energy    TOTEN  =      -242.50942831 eV

  energy without entropy =     -242.50942831  energy(sigma->0) =     -242.50942831


--------------------------------------------------------------------------------------------------------




--------------------------------------- Iteration      1(  16)  ---------------------------------------


    POTLOK:  cpu time    1.6348: real time    1.6401
    SETDIJ:  cpu time    0.0090: real time    0.0088
    EDDIAG:  cpu time    1.2668: real time    1.2710
  RMM-DIIS:  cpu time    4.5003: real time    4.5110
    ORTHCH:  cpu time    0.2440: real time    0.2447
       DOS:  cpu time    0.0000: real time    0.0006
    CHARGE:  cpu time    0.6299: real time    0.6314
    MIXING:  cpu time    0.0730: real time    0.0735
    --------------------------------------------
      LOOP:  cpu time    8.3587: real time    8.3811

 eigenvalue-minimisations  :   145
 total energy-change (2. order) :-0.1429068E-01  (-0.2451373E-03)
 number of electron     104.0000020 magnetization 
 augmentation part        3.4599931 magnetization 

 Broyden mixing:
  rms(total) = 0.32902E-02    rms(broyden)= 0.32887E-02
  rms(prec ) = 0.55951E-02
  weight for this iteration     100.00

 eigenvalues of (default mixing * dielectric matrix)
  average eigenvalue GAMMA=   2.0528
  5.9565  2.7228  2.2089  1.9342  1.5191  0.9656  0.9656  1.1011  1.1011

 Free energy of the ion-electron system (eV)
  ---------------------------------------------------
  alpha Z        PSCENC =         5.19163790
  Ewald energy   TEWEN  =     10418.64026339
  -Hartree energ DENC   =    -13624.25653357
  -exchange      EXHF   =         0.00000000
  -V(xc)+E(xc)   XCENC  =       366.97360528
  PAW double counting   =      9260.46336975    -9279.12616926
  entropy T*S    EENTRO =        -0.00000000
  eigenvalues    EBANDS =     -1312.71877312
  atomic energy  EATOM  =      3922.30888065
  Solvation  Ediel_sol  =         0.00000000
  ---------------------------------------------------
  free energy    TOTEN  =      -242.52371898 eV

  energy without entropy =     -242.52371898  energy(sigma->0) =     -242.52371898


--------------------------------------------------------------------------------------------------------




--------------------------------------- Iteration      1(  17)  ---------------------------------------


    POTLOK:  cpu time    1.6258: real time    1.6291
    SETDIJ:  cpu time    0.0080: real time    0.0084
    EDDIAG:  cpu time    1.2698: real time    1.2731
  RMM-DIIS:  cpu time    4.3103: real time    4.3217
    ORTHCH:  cpu time    0.2450: real time    0.2454
       DOS:  cpu time    0.0000: real time    0.0004
    CHARGE:  cpu time    0.6259: real time    0.6270
    MIXING:  cpu time    0.0860: real time    0.0862
    --------------------------------------------
      LOOP:  cpu time    8.1698: real time    8.1915

 eigenvalue-minimisations  :   144
 total energy-change (2. order) :-0.8637608E-02  (-0.1095844E-03)
 number of electron     104.0000020 magnetization 
 augmentation part        3.4597643 magnetization 

 Broyden mixing:
  rms(total) = 0.20682E-02    rms(broyden)= 0.20677E-02
  rms(prec ) = 0.34628E-02
  weight for this iteration     100.00

 eigenvalues of (default mixing * dielectric matrix)
  average eigenvalue GAMMA=   2.2433
  6.8424  3.5628  2.2395  2.2395  1.8349  1.6241  0.9717  0.9717  1.0729  1.0729

 Free energy of the ion-electron system (eV)
  ---------------------------------------------------
  alpha Z        PSCENC =         5.19163790
  Ewald energy   TEWEN  =     10418.64026339
  -Hartree energ DENC   =    -13625.29958106
  -exchange      EXHF   =         0.00000000
  -V(xc)+E(xc)   XCENC  =       366.96032948
  PAW double counting   =      9262.28071398    -9280.94232162
  entropy T*S    EENTRO =        -0.00000000
  eigenvalues    EBANDS =     -1311.67227930
  atomic energy  EATOM  =      3922.30888065
  Solvation  Ediel_sol  =         0.00000000
  ---------------------------------------------------
  free energy    TOTEN  =      -242.53235659 eV

  energy without entropy =     -242.53235659  energy(sigma->0) =     -242.53235659


--------------------------------------------------------------------------------------------------------




--------------------------------------- Iteration      1(  18)  ---------------------------------------


    POTLOK:  cpu time    1.6288: real time    1.6330
    SETDIJ:  cpu time    0.0080: real time    0.0080
    EDDIAG:  cpu time    1.2738: real time    1.2772
  RMM-DIIS:  cpu time    4.3633: real time    4.3746
    ORTHCH:  cpu time    0.2460: real time    0.2463
       DOS:  cpu time    0.0000: real time    0.0002
    CHARGE:  cpu time    0.6299: real time    0.6319
    MIXING:  cpu time    0.0860: real time    0.0864
    --------------------------------------------
      LOOP:  cpu time    8.2357: real time    8.2575

 eigenvalue-minimisations  :   139
 total energy-change (2. order) :-0.7344749E-02  (-0.1205673E-03)
 number of electron     104.0000020 magnetization 
 augmentation part        3.4596961 magnetization 

 Broyden mixing:
  rms(total) = 0.11889E-02    rms(broyden)= 0.11886E-02
  rms(prec ) = 0.17213E-02
  weight for this iteration     100.00

 eigenvalues of (default mixing * dielectric matrix)
  average eigenvalue GAMMA=   2.2419
  7.3031  4.0447  2.3600  2.3600  1.8348  1.3130  1.3130  0.9595  0.9595  1.1840
  1.0295

 Free energy of the ion-electron system (eV)
  ---------------------------------------------------
  alpha Z        PSCENC =         5.19163790
  Ewald energy   TEWEN  =     10418.64026339
  -Hartree energ DENC   =    -13625.79820024
  -exchange      EXHF   =         0.00000000
  -V(xc)+E(xc)   XCENC  =       366.94249917
  PAW double counting   =      9264.49499764    -9283.15629064
  entropy T*S    EENTRO =        -0.00000000
  eigenvalues    EBANDS =     -1311.16348921
  atomic energy  EATOM  =      3922.30888065
  Solvation  Ediel_sol  =         0.00000000
  ---------------------------------------------------
  free energy    TOTEN  =      -242.53970134 eV

  energy without entropy =     -242.53970134  energy(sigma->0) =     -242.53970134


--------------------------------------------------------------------------------------------------------




--------------------------------------- Iteration      1(  19)  ---------------------------------------


    POTLOK:  cpu time    1.6328: real time    1.6361
    SETDIJ:  cpu time    0.0080: real time    0.0081
    EDDIAG:  cpu time    1.2758: real time    1.2794
  RMM-DIIS:  cpu time    4.0334: real time    4.0434
    ORTHCH:  cpu time    0.2440: real time    0.2446
       DOS:  cpu time    0.0000: real time    0.0007
    CHARGE:  cpu time    0.6269: real time    0.6277
    MIXING:  cpu time    0.1040: real time    0.1047
    --------------------------------------------
      LOOP:  cpu time    7.9248: real time    7.9449

 eigenvalue-minimisations  :   131
 total energy-change (2. order) :-0.1408895E-02  (-0.2680360E-04)
 number of electron     104.0000020 magnetization 
 augmentation part        3.4596060 magnetization 

 Broyden mixing:
  rms(total) = 0.67779E-03    rms(broyden)= 0.67748E-03
  rms(prec ) = 0.10841E-02
  weight for this iteration     100.00

 eigenvalues of (default mixing * dielectric matrix)
  average eigenvalue GAMMA=   2.3390
  7.8046  4.7269  2.5747  2.5747  1.9043  1.9043  1.3392  1.1620  1.1620  1.0212
  0.9470  0.9470

 Free energy of the ion-electron system (eV)
  ---------------------------------------------------
  alpha Z        PSCENC =         5.19163790
  Ewald energy   TEWEN  =     10418.64026339
  -Hartree energ DENC   =    -13625.93987448
  -exchange      EXHF   =         0.00000000
  -V(xc)+E(xc)   XCENC  =       366.94005500
  PAW double counting   =      9264.26304317    -9282.92443738
  entropy T*S    EENTRO =        -0.00000000
  eigenvalues    EBANDS =     -1311.02067848
  atomic energy  EATOM  =      3922.30888065
  Solvation  Ediel_sol  =         0.00000000
  ---------------------------------------------------
  free energy    TOTEN  =      -242.54111023 eV

  energy without entropy =     -242.54111023  energy(sigma->0) =     -242.54111023


--------------------------------------------------------------------------------------------------------




--------------------------------------- Iteration      1(  20)  ---------------------------------------


    POTLOK:  cpu time    1.6298: real time    1.6368
    SETDIJ:  cpu time    0.0090: real time    0.0085
    EDDIAG:  cpu time    1.2738: real time    1.2778
  RMM-DIIS:  cpu time    3.8774: real time    3.8873
    ORTHCH:  cpu time    0.2530: real time    0.2530
       DOS:  cpu time    0.0000: real time    0.0004
    CHARGE:  cpu time    0.6309: real time    0.6321
    MIXING:  cpu time    0.1000: real time    0.1008
    --------------------------------------------
      LOOP:  cpu time    7.7748: real time    7.7967

 eigenvalue-minimisations  :   126
 total energy-change (2. order) :-0.1313021E-02  (-0.1246332E-04)
 number of electron     104.0000020 magnetization 
 augmentation part        3.4596326 magnetization 

 Broyden mixing:
  rms(total) = 0.39449E-03    rms(broyden)= 0.39431E-03
  rms(prec ) = 0.57602E-03
  weight for this iteration     100.00

 eigenvalues of (default mixing * dielectric matrix)
  average eigenvalue GAMMA=   2.2995
  7.9164  5.2301  2.8726  2.3612  2.1278  1.7860  1.2116  1.2116  1.2624  0.9474
  0.9474  1.0096  1.0096

 Free energy of the ion-electron system (eV)
  ---------------------------------------------------
  alpha Z        PSCENC =         5.19163790
  Ewald energy   TEWEN  =     10418.64026339
  -Hartree energ DENC   =    -13625.91375274
  -exchange      EXHF   =         0.00000000
  -V(xc)+E(xc)   XCENC  =       366.93601103
  PAW double counting   =      9263.61829353    -9282.27931109
  entropy T*S    EENTRO =        -0.00000000
  eigenvalues    EBANDS =     -1311.04444593
  atomic energy  EATOM  =      3922.30888065
  Solvation  Ediel_sol  =         0.00000000
  ---------------------------------------------------
  free energy    TOTEN  =      -242.54242326 eV

  energy without entropy =     -242.54242326  energy(sigma->0) =     -242.54242326


--------------------------------------------------------------------------------------------------------




--------------------------------------- Iteration      1(  21)  ---------------------------------------


    POTLOK:  cpu time    1.6308: real time    1.6343
    SETDIJ:  cpu time    0.0080: real time    0.0085
    EDDIAG:  cpu time    1.2708: real time    1.2736
  RMM-DIIS:  cpu time    3.1505: real time    3.1592
    ORTHCH:  cpu time    0.2510: real time    0.2518
       DOS:  cpu time    0.0010: real time    0.0002
    CHARGE:  cpu time    0.6299: real time    0.6317
    MIXING:  cpu time    0.1080: real time    0.1083
    --------------------------------------------
      LOOP:  cpu time    7.0489: real time    7.0676

 eigenvalue-minimisations  :    98
 total energy-change (2. order) :-0.1826814E-03  (-0.1419015E-05)
 number of electron     104.0000020 magnetization 
 augmentation part        3.4596138 magnetization 

 Broyden mixing:
  rms(total) = 0.24325E-03    rms(broyden)= 0.24319E-03
  rms(prec ) = 0.39778E-03
  weight for this iteration     100.00

 eigenvalues of (default mixing * dielectric matrix)
  average eigenvalue GAMMA=   2.3782
  8.0295  5.8630  3.2582  2.5530  2.1439  1.9651  1.9651  1.2709  1.1848  1.1848
  0.9354  0.9354  1.0032  1.0032

 Free energy of the ion-electron system (eV)
  ---------------------------------------------------
  alpha Z        PSCENC =         5.19163790
  Ewald energy   TEWEN  =     10418.64026339
  -Hartree energ DENC   =    -13625.99703232
  -exchange      EXHF   =         0.00000000
  -V(xc)+E(xc)   XCENC  =       366.93723907
  PAW double counting   =      9263.66060187    -9282.32183541
  entropy T*S    EENTRO =        -0.00000000
  eigenvalues    EBANDS =     -1310.96236108
  atomic energy  EATOM  =      3922.30888065
  Solvation  Ediel_sol  =         0.00000000
  ---------------------------------------------------
  free energy    TOTEN  =      -242.54260594 eV

  energy without entropy =     -242.54260594  energy(sigma->0) =     -242.54260594


--------------------------------------------------------------------------------------------------------




--------------------------------------- Iteration      1(  22)  ---------------------------------------


    POTLOK:  cpu time    1.6268: real time    1.6309
    SETDIJ:  cpu time    0.0080: real time    0.0083
    EDDIAG:  cpu time    1.2718: real time    1.2751
  RMM-DIIS:  cpu time    2.9596: real time    2.9667
    ORTHCH:  cpu time    0.2440: real time    0.2453
       DOS:  cpu time    0.0010: real time    0.0003
    CHARGE:  cpu time    0.6299: real time    0.6316
    MIXING:  cpu time    0.1160: real time    0.1168
    --------------------------------------------
      LOOP:  cpu time    6.8570: real time    6.8750

 eigenvalue-minimisations  :    94
 total energy-change (2. order) :-0.3108348E-03  (-0.1531280E-05)
 number of electron     104.0000020 magnetization 
 augmentation part        3.4595830 magnetization 

 Broyden mixing:
  rms(total) = 0.24310E-03    rms(broyden)= 0.24305E-03
  rms(prec ) = 0.29333E-03
  weight for this iteration     100.00

 eigenvalues of (default mixing * dielectric matrix)
  average eigenvalue GAMMA=   2.3520
  8.3991  5.9429  3.6532  2.5451  2.2024  2.2024  1.6026  1.3510  1.2118  1.2118
  1.0648  1.0648  0.9516  0.9516  0.9258

 Free energy of the ion-electron system (eV)
  ---------------------------------------------------
  alpha Z        PSCENC =         5.19163790
  Ewald energy   TEWEN  =     10418.64026339
  -Hartree energ DENC   =    -13626.06760079
  -exchange      EXHF   =         0.00000000
  -V(xc)+E(xc)   XCENC  =       366.93740618
  PAW double counting   =      9263.37303965    -9282.03449957
  entropy T*S    EENTRO =        -0.00000000
  eigenvalues    EBANDS =     -1310.89204418
  atomic energy  EATOM  =      3922.30888065
  Solvation  Ediel_sol  =         0.00000000
  ---------------------------------------------------
  free energy    TOTEN  =      -242.54291677 eV

  energy without entropy =     -242.54291677  energy(sigma->0) =     -242.54291677


--------------------------------------------------------------------------------------------------------




--------------------------------------- Iteration      1(  23)  ---------------------------------------


    POTLOK:  cpu time    1.6318: real time    1.6360
    SETDIJ:  cpu time    0.0080: real time    0.0081
    EDDIAG:  cpu time    1.2628: real time    1.2657
  RMM-DIIS:  cpu time    2.7306: real time    2.7375
    ORTHCH:  cpu time    0.2450: real time    0.2452
       DOS:  cpu time    0.0000: real time    0.0003
    CHARGE:  cpu time    0.6319: real time    0.6332
    MIXING:  cpu time    0.1310: real time    0.1319
    --------------------------------------------
      LOOP:  cpu time    6.6410: real time    6.6580

 eigenvalue-minimisations  :    73
 total energy-change (2. order) :-0.5143456E-04  (-0.3512450E-06)
 number of electron     104.0000020 magnetization 
 augmentation part        3.4595934 magnetization 

 Broyden mixing:
  rms(total) = 0.99508E-04    rms(broyden)= 0.99490E-04
  rms(prec ) = 0.14428E-03
  weight for this iteration     100.00

 eigenvalues of (default mixing * dielectric matrix)
  average eigenvalue GAMMA=   2.4127
  8.4388  6.6153  4.0649  2.8797  2.3923  2.1013  1.6982  1.4378  1.4378  1.3764
  1.1465  1.1465  0.9450  0.9450  0.9890  0.9890

 Free energy of the ion-electron system (eV)
  ---------------------------------------------------
  alpha Z        PSCENC =         5.19163790
  Ewald energy   TEWEN  =     10418.64026339
  -Hartree energ DENC   =    -13626.06619056
  -exchange      EXHF   =         0.00000000
  -V(xc)+E(xc)   XCENC  =       366.93692405
  PAW double counting   =      9263.46860272    -9282.12981087
  entropy T*S    EENTRO =        -0.00000000
  eigenvalues    EBANDS =     -1310.89327548
  atomic energy  EATOM  =      3922.30888065
  Solvation  Ediel_sol  =         0.00000000
  ---------------------------------------------------
  free energy    TOTEN  =      -242.54296821 eV

  energy without entropy =     -242.54296821  energy(sigma->0) =     -242.54296821


--------------------------------------------------------------------------------------------------------




--------------------------------------- Iteration      1(  24)  ---------------------------------------


    POTLOK:  cpu time    1.6298: real time    1.6337
    SETDIJ:  cpu time    0.0070: real time    0.0080
    EDDIAG:  cpu time    1.2668: real time    1.2696
  RMM-DIIS:  cpu time    2.8976: real time    2.9050
    ORTHCH:  cpu time    0.2520: real time    0.2518
       DOS:  cpu time    0.0010: real time    0.0005
    CHARGE:  cpu time    0.6279: real time    0.6303
    MIXING:  cpu time    0.1340: real time    0.1343
    --------------------------------------------
      LOOP:  cpu time    6.8160: real time    6.8332

 eigenvalue-minimisations  :    90
 total energy-change (2. order) :-0.6046603E-04  (-0.3149180E-06)
 number of electron     104.0000020 magnetization 
 augmentation part        3.4596014 magnetization 

 Broyden mixing:
  rms(total) = 0.12805E-03    rms(broyden)= 0.12803E-03
  rms(prec ) = 0.14471E-03
  weight for this iteration     100.00

 eigenvalues of (default mixing * dielectric matrix)
  average eigenvalue GAMMA=   2.3702
  8.6753  6.6493  4.4164  2.7419  2.4243  2.0671  2.0671  1.3486  1.3486  1.3321
  1.3321  1.0874  1.0874  0.9482  0.9482  0.9096  0.9096

 Free energy of the ion-electron system (eV)
  ---------------------------------------------------
  alpha Z        PSCENC =         5.19163790
  Ewald energy   TEWEN  =     10418.64026339
  -Hartree energ DENC   =    -13626.06880649
  -exchange      EXHF   =         0.00000000
  -V(xc)+E(xc)   XCENC  =       366.93665067
  PAW double counting   =      9263.63975587    -9282.30094363
  entropy T*S    EENTRO =        -0.00000000
  eigenvalues    EBANDS =     -1310.89046703
  atomic energy  EATOM  =      3922.30888065
  Solvation  Ediel_sol  =         0.00000000
  ---------------------------------------------------
  free energy    TOTEN  =      -242.54302867 eV

  energy without entropy =     -242.54302867  energy(sigma->0) =     -242.54302867


--------------------------------------------------------------------------------------------------------




--------------------------------------- Iteration      1(  25)  ---------------------------------------


    POTLOK:  cpu time    1.6318: real time    1.6369
    SETDIJ:  cpu time    0.0090: real time    0.0090
    EDDIAG:  cpu time    1.2648: real time    1.2673
  RMM-DIIS:  cpu time    2.4256: real time    2.4323
    ORTHCH:  cpu time    0.2440: real time    0.2444
       DOS:  cpu time    0.0010: real time    0.0013
    --------------------------------------------
      LOOP:  cpu time    5.5762: real time    5.5910

 eigenvalue-minimisations  :    53
 total energy-change (2. order) :-0.9493077E-05  (-0.7753738E-07)
 number of electron     104.0000020 magnetization 
 augmentation part        3.4596014 magnetization 

 Free energy of the ion-electron system (eV)
  ---------------------------------------------------
  alpha Z        PSCENC =         5.19163790
  Ewald energy   TEWEN  =     10418.64026339
  -Hartree energ DENC   =    -13626.08443859
  -exchange      EXHF   =         0.00000000
  -V(xc)+E(xc)   XCENC  =       366.93699337
  PAW double counting   =      9263.55098147    -9282.21226426
  entropy T*S    EENTRO =        -0.00000000
  eigenvalues    EBANDS =     -1310.87509210
  atomic energy  EATOM  =      3922.30888065
  Solvation  Ediel_sol  =         0.00000000
  ---------------------------------------------------
  free energy    TOTEN  =      -242.54303817 eV

  energy without entropy =     -242.54303817  energy(sigma->0) =     -242.54303817


--------------------------------------------------------------------------------------------------------




 average (electrostatic) potential at core
  the test charge radii are     0.7215  0.6991  0.7089  0.5201
  (the norm of the test charge is              1.0000)
       1 -79.0853       2 -58.6016       3 -58.7570       4 -58.6737       5 -58.4969
       6 -59.7941       7 -58.6870       8 -59.7776       9 -61.4306      10 -57.9205
      11 -58.2159      12 -58.3658      13 -59.3753      14 -58.3383      15 -59.4577
      16 -58.3090      17 -73.8915      18 -74.1569      19 -74.2609      20 -73.5339
      21 -42.0113      22 -42.0519      23 -42.3682      24 -44.1453      25 -44.1772
      26 -44.0661      27 -41.9025      28 -41.9371      29 -41.9803      30 -44.1994
      31 -41.5615      32 -42.0985      33 -41.6089      34 -41.7023      35 -41.6549
      36 -43.8099      37 -43.8518      38 -41.1667
 
 
 
 E-fermi :  -4.3881     XC(G=0):  -0.5322     alpha+bet : -0.2622


 k-point     1 :       0.0000    0.0000    0.0000
  band No.  band energies     occupation 
      1     -25.8936      2.00000
      2     -23.3990      2.00000
      3     -23.1356      2.00000
      4     -22.8860      2.00000
      5     -22.6906      2.00000
      6     -20.6949      2.00000
      7     -20.3233      2.00000
      8     -19.0226      2.00000
      9     -18.7091      2.00000
     10     -18.0888      2.00000
     11     -17.6725      2.00000
     12     -17.0929      2.00000
     13     -16.7103      2.00000
     14     -15.4119      2.00000
     15     -15.0971      2.00000
     16     -14.8246      2.00000
     17     -14.7439      2.00000
     18     -13.8735      2.00000
     19     -13.5081      2.00000
     20     -13.3606      2.00000
     21     -12.8287      2.00000
     22     -12.3241      2.00000
     23     -12.1678      2.00000
     24     -11.5765      2.00000
     25     -11.3001      2.00000
     26     -11.1246      2.00000
     27     -10.9154      2.00000
     28     -10.6504      2.00000
     29     -10.5338      2.00000
     30     -10.3804      2.00000
     31     -10.2755      2.00000
     32     -10.1518      2.00000
     33     -10.0471      2.00000
     34      -9.8082      2.00000
     35      -9.5701      2.00000
     36      -9.4635      2.00000
     37      -9.2228      2.00000
     38      -9.0647      2.00000
     39      -8.8208      2.00000
     40      -8.6650      2.00000
     41      -8.4072      2.00000
     42      -8.2804      2.00000
     43      -7.9701      2.00000
     44      -7.9240      2.00000
     45      -7.6460      2.00000
     46      -6.8033      2.00000
     47      -6.6008      2.00000
     48      -5.7318      2.00000
     49      -5.4876      2.00000
     50      -5.1098      2.00000
     51      -4.8989      2.00000
     52      -4.5476      2.00000
     53      -1.2359      0.00000
     54      -0.9185      0.00000
     55      -0.7947      0.00000
     56      -0.7286      0.00000
     57      -0.5164      0.00000
     58      -0.3594      0.00000
     59      -0.2541      0.00000
     60      -0.1666      0.00000
     61       0.0639      0.00000
     62       0.1955      0.00000
     63       0.2220      0.00000
     64       0.3206      0.00000
     65       0.3334      0.00000
     66       0.4206      0.00000
     67       0.4508      0.00000
     68       0.5624      0.00000
     69       0.6073      0.00000
     70       0.8052      0.00000
     71       0.8307      0.00000
     72       0.9352      0.00000


--------------------------------------------------------------------------------------------------------


 soft charge-density along one line, spin component           1
         0         1         2         3         4         5         6         7         8         9
 total charge-density along one line
 
 pseudopotential strength for first ion, spin component:           1
 13.563 -16.611   0.066   0.004  -0.117  -0.084  -0.005   0.147
-16.611  20.373  -0.084  -0.005   0.148   0.107   0.007  -0.187
  0.066  -0.084 -10.136  -0.025   0.085  12.504   0.035  -0.114
  0.004  -0.005  -0.025 -10.137  -0.009   0.035  12.506   0.012
 -0.117   0.148   0.085  -0.009 -10.242  -0.114   0.012  12.646
 -0.084   0.107  12.504   0.035  -0.114 -15.340  -0.047   0.153
 -0.005   0.007   0.035  12.506   0.012  -0.047 -15.345  -0.016
  0.147  -0.187  -0.114   0.012  12.646   0.153  -0.016 -15.532
 total augmentation occupancy for first ion, spin component:           1
  2.804   0.478  -0.282  -0.019   0.500  -0.121  -0.008   0.215
  0.478   0.158  -0.250  -0.016   0.441  -0.062  -0.004   0.111
 -0.282  -0.250   2.258  -0.072  -0.226   0.271   0.011  -0.150
 -0.019  -0.016  -0.072   1.954  -0.060   0.011   0.199  -0.005
  0.500   0.441  -0.226  -0.060   2.511  -0.150  -0.005   0.452
 -0.121  -0.062   0.271   0.011  -0.150   0.047   0.003  -0.041
 -0.008  -0.004   0.011   0.199  -0.005   0.003   0.026  -0.002
  0.215   0.111  -0.150  -0.005   0.452  -0.041  -0.002   0.097


------------------------ aborting loop because EDIFF is reached ----------------------------------------


    CHARGE:  cpu time    0.6309: real time    0.6321
    FORLOC:  cpu time    0.3339: real time    0.3352
    FORNL :  cpu time    1.3698: real time    1.3735
    STRESS:  cpu time    4.0414: real time    4.0522
    FORCOR:  cpu time    1.7867: real time    1.7911
    FORHAR:  cpu time    0.6999: real time    0.7018
    MIXING:  cpu time    0.1410: real time    0.1412
    OFIELD:  cpu time    0.0000: real time    0.0001

  DFT-D2 method for vdW energy calculation
  -------------------------------------------------------------------

  Parameters of vdW forcefield:
         C6(Jnm^6/mol)     R0(A)
   -----------------------------
   O        0.700          1.342
   C        1.750          1.452
   N        1.230          1.397
   H        0.140          1.001

  IVDW =   1
  VDW_RADIUS =    40.000 A
  VDW_S6 =     0.750
  VDW_SR =     1.000
  VDW_D =    20.000
  LVDW_EWALD = F

  Number of pair interactions contributing to vdW energy:   20668
  Edisp (eV):   -0.93311
    FORVDW:  cpu time    0.0220: real time    0.0232

  FORCE on cell =-STRESS in cart. coord.  units (eV):
  Direction    XX          YY          ZZ          XY          YZ          ZX
  --------------------------------------------------------------------------------------
  Alpha Z     5.19164     5.19164     5.19164
  Ewald    4851.88693  8167.90025 -2601.15178  -363.84472 -1651.42746   378.51893
  Hartree  5316.84095  8548.46720  -239.21730  -243.24564 -1432.44802   258.30047
  E(xc)    -394.21334  -394.47709  -402.82382    -0.62722    -0.66593     0.55210
  Local  -11168.98864-17732.12099  1637.26083   583.28186  3073.28746  -625.35588
  n-local  -186.29912  -185.86784  -189.79530     0.74376    -1.02321     0.16168
  augment     6.10920     6.99807     9.32391     0.89077    -0.00639    -0.14851
  Kinetic  1568.11889  1582.45635  1779.36375    22.69553    12.19549   -12.03150
  Fock        0.00000     0.00000     0.00000     0.00000     0.00000     0.00000
  vdW        -0.07707    -0.20225     0.03524     0.06560     0.08420    -0.02487
  -------------------------------------------------------------------------------------
  Total      -1.43055    -1.65465    -1.81283    -0.04005    -0.00387    -0.02759
  in kB      -0.24805    -0.28691    -0.31434    -0.00694    -0.00067    -0.00478
  external pressure =       -0.28 kB  Pullay stress =        0.00 kB


 VOLUME and BASIS-vectors are now :
 -----------------------------------------------------------------------------
  energy-cutoff  :      450.00
  volume of cell :     9240.00
      direct lattice vectors                 reciprocal lattice vectors
    20.000000000  0.000000000  0.000000000     0.050000000  0.000000000  0.000000000
     0.000000000 21.000000000  0.000000000     0.000000000  0.047619048  0.000000000
     0.000000000  0.000000000 22.000000000     0.000000000  0.000000000  0.045454545

  length of vectors
    20.000000000 21.000000000 22.000000000     0.050000000  0.047619048  0.045454545


[...]
  -------------------------------------------------------------------------------------
  Total      -1.64025    -1.91062    -1.85063     0.03826     0.02391     0.01334
  in kB      -0.28441    -0.33129    -0.32089     0.00663     0.00415     0.00231
  external pressure =       -0.31 kB  Pullay stress =        0.00 kB



--------------------------------------------------------------------------------------------------------



  FREE ENERGIE OF THE ION-ELECTRON SYSTEM (eV)
  ---------------------------------------------------
  free  energy   TOTEN  =      -243.47816509 eV

  energy  without entropy=     -243.47816509  energy(sigma->0) =     -243.47816509
 
 d Force = 0.9443240E-04[ 0.722E-04, 0.117E-03]  d Energy = 0.9550311E-04-0.107E-05
 d Force =-0.6217129E+00[-0.622E+00,-0.622E+00]  d Ewald  =-0.6217129E+00-0.201E-07


--------------------------------------------------------------------------------------------------------


    POTLOK:  cpu time    1.6577: real time    1.6633


--------------------------------------------------------------------------------------------------------


 Conjugate gradient step on ions:
 trial-energy change:   -0.000096  1 .order   -0.000094   -0.000117   -0.000072
  (g-gl).g = 0.122E-03      g.g   = 0.133E-03  gl.gl    = 0.257E-03
 g(Force)  = 0.133E-03   g(Stress)= 0.000E+00 ortho     = 0.100E-04
 gamma     =   0.47719
 trial     =   0.84403
 opt step  =   2.21722  (harmonic =   2.21722) maximal distance =0.00130492
 next E    =  -243.478223   (d E  =  -0.00015)


--------------------------------------------------------------------------------------------------------


    WAVPRE:  cpu time    0.7729: real time    0.7778
    FEWALD:  cpu time    0.0010: real time    0.0014
    ORTHCH:  cpu time    0.6949: real time    0.6970
     LOOP+:  cpu time   48.8016: real time   48.9636


--------------------------------------- Iteration     13(   1)  ---------------------------------------


    POTLOK:  cpu time    1.6777: real time    1.6837
    SETDIJ:  cpu time    0.0090: real time    0.0091
     EDDAV:  cpu time    7.0269: real time    7.0492
       DOS:  cpu time    0.0000: real time    0.0002
    CHARGE:  cpu time    0.6419: real time    0.6440
    MIXING:  cpu time    0.0390: real time    0.0385
    --------------------------------------------
      LOOP:  cpu time    9.3946: real time    9.4249

 eigenvalue-minimisations  :   168
 total energy-change (2. order) : 0.5275856E-04  (-0.1533455E-02)
 number of electron     104.0000019 magnetization 
 augmentation part        3.4581903 magnetization 

  free energy =  -0.242542187831E+03  energy without entropy=  -0.242542187831E+03


--------------------------------------------------------------------------------------------------------




--------------------------------------- Iteration     13(   2)  ---------------------------------------


    POTLOK:  cpu time    1.6707: real time    1.6761
    SETDIJ:  cpu time    0.0080: real time    0.0083
    EDDIAG:  cpu time    1.2648: real time    1.2683
  RMM-DIIS:  cpu time    4.3613: real time    4.3758
    ORTHCH:  cpu time    0.2450: real time    0.2456
       DOS:  cpu time    0.0010: real time    0.0007
    CHARGE:  cpu time    0.6309: real time    0.6329
    MIXING:  cpu time    0.0430: real time    0.0427
    --------------------------------------------
      LOOP:  cpu time    8.2248: real time    8.2503

 eigenvalue-minimisations  :   144
 total energy-change (2. order) :-0.1675168E-04  (-0.2512126E-04)
 number of electron     104.0000019 magnetization 
 augmentation part        3.4582163 magnetization 

 eigenvalues of (default mixing * dielectric matrix)
  average eigenvalue GAMMA=   1.2007
  1.2007

  free energy =  -0.242542204583E+03  energy without entropy=  -0.242542204583E+03


--------------------------------------------------------------------------------------------------------




--------------------------------------- Iteration     13(   3)  ---------------------------------------


    POTLOK:  cpu time    1.6777: real time    1.6830
    SETDIJ:  cpu time    0.0080: real time    0.0082
    EDDIAG:  cpu time    1.2668: real time    1.2698
  RMM-DIIS:  cpu time    2.8996: real time    2.9100
    ORTHCH:  cpu time    0.2450: real time    0.2457
       DOS:  cpu time    0.0010: real time    0.0006
    CHARGE:  cpu time    0.6259: real time    0.6283
    MIXING:  cpu time    0.0480: real time    0.0482
    --------------------------------------------
      LOOP:  cpu time    6.7720: real time    6.7937

 eigenvalue-minimisations  :    92
 total energy-change (2. order) : 0.1911962E-05  (-0.1379362E-05)
 number of electron     104.0000019 magnetization 
 augmentation part        3.4582361 magnetization 

 eigenvalues of (default mixing * dielectric matrix)
  average eigenvalue GAMMA=   1.6497
  1.0421  2.2572

  free energy =  -0.242542202671E+03  energy without entropy=  -0.242542202671E+03


--------------------------------------------------------------------------------------------------------




--------------------------------------- Iteration     13(   4)  ---------------------------------------


    POTLOK:  cpu time    1.6787: real time    1.6836
    SETDIJ:  cpu time    0.0080: real time    0.0079
    EDDIAG:  cpu time    1.2728: real time    1.2769
  RMM-DIIS:  cpu time    2.8736: real time    2.8827
    ORTHCH:  cpu time    0.2480: real time    0.2492
       DOS:  cpu time    0.0000: real time    0.0002
    CHARGE:  cpu time    0.6289: real time    0.6311
    MIXING:  cpu time    0.0480: real time    0.0476
    --------------------------------------------
      LOOP:  cpu time    6.7580: real time    6.7793

 eigenvalue-minimisations  :    92
 total energy-change (2. order) :-0.8069401E-06  (-0.8924030E-06)
 number of electron     104.0000019 magnetization 
 augmentation part        3.4582358 magnetization 

 eigenvalues of (default mixing * dielectric matrix)
  average eigenvalue GAMMA=   1.6195
  1.0671  2.1616  1.6298

  free energy =  -0.242542203478E+03  energy without entropy=  -0.242542203478E+03


--------------------------------------------------------------------------------------------------------




--------------------------------------- Iteration     13(   5)  ---------------------------------------


    POTLOK:  cpu time    1.6887: real time    1.6966
    SETDIJ:  cpu time    0.0080: real time    0.0080
    EDDIAG:  cpu time    1.2658: real time    1.2691
  RMM-DIIS:  cpu time    2.8926: real time    2.9021
    ORTHCH:  cpu time    0.2450: real time    0.2451
       DOS:  cpu time    0.0000: real time    0.0004
    --------------------------------------------
      LOOP:  cpu time    6.1001: real time    6.1213

 eigenvalue-minimisations  :    90
 total energy-change (2. order) :-0.5261154E-07  (-0.1401222E-06)
 number of electron     104.0000019 magnetization 
 augmentation part        3.4582358 magnetization 

  free energy =  -0.242542203531E+03  energy without entropy=  -0.242542203531E+03


--------------------------------------------------------------------------------------------------------




------------------------ aborting loop because EDIFF is reached ----------------------------------------


    CHARGE:  cpu time    0.6299: real time    0.6315
    FORLOC:  cpu time    0.3299: real time    0.3312
    FORNL :  cpu time    1.3588: real time    1.3633
    STRESS:  cpu time    3.9914: real time    4.0039
    FORCOR:  cpu time    1.7867: real time    1.7921
    FORHAR:  cpu time    0.6919: real time    0.6945
    MIXING:  cpu time    0.0490: real time    0.0488
    OFIELD:  cpu time    0.0000: real time    0.0001

  Number of pair interactions contributing to vdW energy:   20666
  Edisp (eV):   -0.93602
    FORVDW:  cpu time    0.0050: real time    0.0051

  FORCE on cell =-STRESS in cart. coord.  units (eV):
  Direction    XX          YY          ZZ          XY          YZ          ZX
  --------------------------------------------------------------------------------------
  Alpha Z     5.19164     5.19164     5.19164
  Ewald    4851.83587  8169.57233 -2601.11015  -364.77246 -1649.65357   376.51104
  Hartree  5316.78008  8549.65987  -238.61005  -243.88987 -1431.42486   256.53583
  E(xc)    -394.17790  -394.43670  -402.79455    -0.62819    -0.66275     0.55067
  Local  -11169.01410-17734.91480  1636.49089   584.84497  3070.56972  -621.51132
  n-local  -186.19237  -185.76655  -189.69113     0.73129    -1.01821     0.16173
  augment     6.11513     6.99031     9.32239     0.89336    -0.00618    -0.15149
  Kinetic  1567.94826  1582.05064  1779.31515    22.78177    12.11704   -12.05085
  Fock        0.00000     0.00000     0.00000     0.00000     0.00000     0.00000
  vdW        -0.06851    -0.19662     0.03565     0.06527     0.08593    -0.02368
  -------------------------------------------------------------------------------------
  Total      -1.58190    -1.84989    -1.85014     0.02614     0.00713     0.02192
  in kB      -0.27429    -0.32076    -0.32081     0.00453     0.00124     0.00380
  external pressure =       -0.31 kB  Pullay stress =        0.00 kB



--------------------------------------------------------------------------------------------------------



  FREE ENERGIE OF THE ION-ELECTRON SYSTEM (eV)
  ---------------------------------------------------
  free  energy   TOTEN  =      -243.47822820 eV

  energy  without entropy=     -243.47822820  energy(sigma->0) =     -243.47822820
 
 d Force = 0.6138894E-04[ 0.526E-05, 0.118E-03]  d Energy = 0.6311118E-04-0.172E-05
 d Force =-0.1011370E+01[-0.101E+01,-0.101E+01]  d Ewald  =-0.1011370E+01-0.626E-08


--------------------------------------------------------------------------------------------------------


    POTLOK:  cpu time    1.6777: real time    1.6841


--------------------------------------------------------------------------------------------------------




--------------------------------------------------------------------------------------------------------


    WAVPRE:  cpu time    0.7729: real time    0.7778
    FEWALD:  cpu time    0.0030: real time    0.0022
    ORTHCH:  cpu time    0.6909: real time    0.6926
     LOOP+:  cpu time   49.2545: real time   49.4167


--------------------------------------- Iteration     14(   1)  ---------------------------------------


    POTLOK:  cpu time    1.6887: real time    1.6950
    SETDIJ:  cpu time    0.0100: real time    0.0094
     EDDAV:  cpu time    7.0359: real time    7.0580
       DOS:  cpu time    0.0000: real time    0.0002
    CHARGE:  cpu time    0.6419: real time    0.6439
    MIXING:  cpu time    0.0450: real time    0.0448
    --------------------------------------------
      LOOP:  cpu time    9.4216: real time    9.4514

 eigenvalue-minimisations  :   168
 total energy-change (2. order) :-0.5693895E-05  (-0.7215656E-03)
 number of electron     104.0000020 magnetization 
 augmentation part        3.4583571 magnetization 

  free energy =  -0.242542209172E+03  energy without entropy=  -0.242542209172E+03


--------------------------------------------------------------------------------------------------------




--------------------------------------- Iteration     14(   2)  ---------------------------------------


    POTLOK:  cpu time    1.6797: real time    1.6858
    SETDIJ:  cpu time    0.0090: real time    0.0087
    EDDIAG:  cpu time    1.2648: real time    1.2688
  RMM-DIIS:  cpu time    4.3793: real time    4.3940
    ORTHCH:  cpu time    0.2440: real time    0.2448
       DOS:  cpu time    0.0010: real time    0.0008
    CHARGE:  cpu time    0.6309: real time    0.6322
    MIXING:  cpu time    0.0430: real time    0.0432
    --------------------------------------------
      LOOP:  cpu time    8.2517: real time    8.2783

 eigenvalue-minimisations  :   144
 total energy-change (2. order) :-0.7898467E-05  (-0.1183154E-04)
 number of electron     104.0000020 magnetization 
 augmentation part        3.4584132 magnetization 

 eigenvalues of (default mixing * dielectric matrix)
  average eigenvalue GAMMA=   1.2929
  1.2929

  free energy =  -0.242542217070E+03  energy without entropy=  -0.242542217070E+03


--------------------------------------------------------------------------------------------------------




--------------------------------------- Iteration     14(   3)  ---------------------------------------


    POTLOK:  cpu time    1.6717: real time    1.6784
    SETDIJ:  cpu time    0.0090: real time    0.0087
    EDDIAG:  cpu time    1.2728: real time    1.2767
  RMM-DIIS:  cpu time    2.9236: real time    2.9345
    ORTHCH:  cpu time    0.2490: real time    0.2499
       DOS:  cpu time    0.0000: real time    0.0005
    CHARGE:  cpu time    0.6309: real time    0.6321
    MIXING:  cpu time    0.0440: real time    0.0446
    --------------------------------------------
      LOOP:  cpu time    6.8010: real time    6.8253

 eigenvalue-minimisations  :    91
 total energy-change (2. order) : 0.6734999E-06  (-0.5888490E-06)
 number of electron     104.0000020 magnetization 
 augmentation part        3.4584166 magnetization 

 eigenvalues of (default mixing * dielectric matrix)
  average eigenvalue GAMMA=   1.6899
  1.0269  2.3530

  free energy =  -0.242542216397E+03  energy without entropy=  -0.242542216397E+03


--------------------------------------------------------------------------------------------------------




--------------------------------------- Iteration     14(   4)  ---------------------------------------


    POTLOK:  cpu time    1.6807: real time    1.6858
    SETDIJ:  cpu time    0.0080: real time    0.0080
    EDDIAG:  cpu time    1.2648: real time    1.2697
  RMM-DIIS:  cpu time    2.9176: real time    2.9264
    ORTHCH:  cpu time    0.2450: real time    0.2458
       DOS:  cpu time    0.0010: real time    0.0003
    CHARGE:  cpu time    0.6309: real time    0.6331
    MIXING:  cpu time    0.0470: real time    0.0476
    --------------------------------------------
      LOOP:  cpu time    6.7950: real time    6.8166

 eigenvalue-minimisations  :    90
 total energy-change (2. order) :-0.3419627E-06  (-0.3106315E-06)
 number of electron     104.0000020 magnetization 
 augmentation part        3.4584096 magnetization 

 eigenvalues of (default mixing * dielectric matrix)
  average eigenvalue GAMMA=   1.6488
  1.0553  2.2244  1.6667

  free energy =  -0.242542216739E+03  energy without entropy=  -0.242542216739E+03


--------------------------------------------------------------------------------------------------------




--------------------------------------- Iteration     14(   5)  ---------------------------------------


    POTLOK:  cpu time    1.6837: real time    1.6893
    SETDIJ:  cpu time    0.0080: real time    0.0079
    EDDIAG:  cpu time    1.2648: real time    1.2685
  RMM-DIIS:  cpu time    2.4806: real time    2.4880
    ORTHCH:  cpu time    0.2480: real time    0.2492
       DOS:  cpu time    0.0010: real time    0.0004
    --------------------------------------------
      LOOP:  cpu time    5.6861: real time    5.7034

 eigenvalue-minimisations  :    56
 total energy-change (2. order) :-0.1063809E-06  (-0.2899470E-07)
 number of electron     104.0000020 magnetization 
 augmentation part        3.4584096 magnetization 

  free energy =  -0.242542216845E+03  energy without entropy=  -0.242542216845E+03


--------------------------------------------------------------------------------------------------------




------------------------ aborting loop because EDIFF is reached ----------------------------------------


    CHARGE:  cpu time    0.6289: real time    0.6307
    FORLOC:  cpu time    0.3369: real time    0.3382
    FORNL :  cpu time    1.3668: real time    1.3711
    STRESS:  cpu time    4.0424: real time    4.0549
    FORCOR:  cpu time    1.7937: real time    1.7992
    FORHAR:  cpu time    0.6999: real time    0.7021
    MIXING:  cpu time    0.0480: real time    0.0487
    OFIELD:  cpu time    0.0000: real time    0.0000

  Number of pair interactions contributing to vdW energy:   20666
  Edisp (eV):   -0.93611
    FORVDW:  cpu time    0.0060: real time    0.0051

  FORCE on cell =-STRESS in cart. coord.  units (eV):
  Direction    XX          YY          ZZ          XY          YZ          ZX
  --------------------------------------------------------------------------------------
  Alpha Z     5.19164     5.19164     5.19164
  Ewald    4852.09847  8169.85789 -2601.06749  -364.71601 -1649.59927   376.39345
  Hartree  5317.01635  8549.88248  -238.49673  -243.86341 -1431.42448   256.50176
  E(xc)    -394.18334  -394.44182  -402.79974    -0.62810    -0.66250     0.55030
  Local  -11169.50259-17735.40214  1636.32336   584.76662  3070.53777  -621.37289
  n-local  -186.20219  -185.77795  -189.69754     0.73380    -1.01871     0.16199
  augment     6.11485     6.99023     9.32218     0.89320    -0.00657    -0.15163
  Kinetic  1567.99621  1582.09489  1779.32483    22.76752    12.10351   -12.04337
  Fock        0.00000     0.00000     0.00000     0.00000     0.00000     0.00000
  vdW        -0.06850    -0.19634     0.03576     0.06527     0.08606    -0.02360
  -------------------------------------------------------------------------------------
  Total      -1.53910    -1.80110    -1.86374     0.01888     0.01582     0.01601
  in kB      -0.26687    -0.31230    -0.32316     0.00327     0.00274     0.00278
  external pressure =       -0.30 kB  Pullay stress =        0.00 kB



--------------------------------------------------------------------------------------------------------



  FREE ENERGIE OF THE ION-ELECTRON SYSTEM (eV)
  ---------------------------------------------------
  free  energy   TOTEN  =      -243.47832296 eV

  energy  without entropy=     -243.47832296  energy(sigma->0) =     -243.47832296
 
 d Force = 0.9391896E-04[ 0.677E-04, 0.120E-03]  d Energy = 0.9475965E-04-0.841E-06
 d Force =-0.5908279E+00[-0.591E+00,-0.591E+00]  d Ewald  =-0.5908279E+00 0.316E-07


--------------------------------------------------------------------------------------------------------


    POTLOK:  cpu time    1.6707: real time    1.6766


--------------------------------------------------------------------------------------------------------


 Conjugate gradient step on ions:
 trial-energy change:   -0.000095  1 .order   -0.000094   -0.000120   -0.000068
  (g-gl).g = 0.118E-03      g.g   = 0.115E-03  gl.gl    = 0.133E-03
 g(Force)  = 0.115E-03   g(Stress)= 0.000E+00 ortho     = 0.383E-05
 gamma     =   0.88545
 trial     =   1.01430
 opt step  =   2.32558  (harmonic =   2.32558) maximal distance =0.00143278
 next E    =  -243.478366   (d E  =  -0.00014)


--------------------------------------------------------------------------------------------------------


  
 reached required accuracy - stopping structural energy minimisation
     LOOP+:  cpu time   47.5658: real time   47.7229
    4ORBIT:  cpu time    0.0000: real time    0.0000

 total amount of memory used by VASP MPI-rank0   219737. kBytes
=======================================================================

   base      :      30000. kBytes
   nonlr-proj:       3387. kBytes
   fftplans  :      38602. kBytes
   grid      :     128386. kBytes
   one-center:        116. kBytes
   wavefun   :      19246. kBytes
 
  
  
 General timing and accounting informations for this job:
 ========================================================
  
                  Total CPU time used (sec):      854.063
                            User time (sec):      825.231
                          System time (sec):       28.833
                         Elapsed time (sec):      856.842
  
                   Maximum memory used (kb):      644008.
                   Average memory used (kb):           0.
  
                          Minor page faults:      1127345
                          Major page faults:            0
                 Voluntary context switches:         1504
