 vasp.5.4.4.18Apr17-6-g9f103f2a35 (build May 11 2017 09:47:33) complex          
  
 executed on            tekla2IFC date 2022.05.24  19:36:19
 running on   12 total cores
 distrk:  each k-point on   12 cores,    1 groups
 distr:  one band on NCORES_PER_BAND=   1 cores,   12 groups


--------------------------------------------------------------------------------------------------------


 INCAR:
 POTCAR:    PAW_PBE C 08Apr2002                   
 POTCAR:    PAW_PBE H 15Jun2001                   
 POTCAR:    PAW_PBE O 08Apr2002                   

 ----------------------------------------------------------------------------- 
|                                                                             |
|           W    W    AA    RRRRR   N    N  II  N    N   GGGG   !!!           |
|           W    W   A  A   R    R  NN   N  II  NN   N  G    G  !!!           |
|           W    W  A    A  R    R  N N  N  II  N N  N  G       !!!           |
|           W WW W  AAAAAA  RRRRR   N  N N  II  N  N N  G  GGG   !            |
|           WW  WW  A    A  R   R   N   NN  II  N   NN  G    G                |
|           W    W  A    A  R    R  N    N  II  N    N   GGGG   !!!           |
|                                                                             |
|      For optimal performance we recommend to set                            |
|        NCORE= 4 - approx SQRT( number of cores)                             |
|      NCORE specifies how many cores store one orbital (NPAR=cpu/NCORE).     |
|      This setting can  greatly improve the performance of VASP for DFT.     |
|      The default,   NCORE=1            might be grossly inefficient         |
|      on modern multi-core architectures or massively parallel machines.     |
|      Do your own testing !!!!                                               |
|      Unfortunately you need to use the default for GW and RPA calculations. |
|      (for HF NCORE is supported but not extensively tested yet)             |
|                                                                             |
 ----------------------------------------------------------------------------- 

 POTCAR:    PAW_PBE C 08Apr2002                   
  local pseudopotential read in
  partial core-charges read in
  partial kinetic energy density read in
  atomic valenz-charges read in
  non local Contribution for L=           0  read in
    real space projection operators read in
  non local Contribution for L=           0  read in
    real space projection operators read in
  non local Contribution for L=           1  read in
    real space projection operators read in
  non local Contribution for L=           1  read in
    real space projection operators read in
    PAW grid and wavefunctions read in
 
   number of l-projection  operators is LMAX  =           4
   number of lm-projection operators is LMMAX =           8
 
 POTCAR:    PAW_PBE H 15Jun2001                   
  local pseudopotential read in
  atomic valenz-charges read in
  non local Contribution for L=           0  read in
    real space projection operators read in
  non local Contribution for L=           0  read in
    real space projection operators read in
  non local Contribution for L=           1  read in
    real space projection operators read in
    PAW grid and wavefunctions read in
 
   number of l-projection  operators is LMAX  =           3
   number of lm-projection operators is LMMAX =           5
 
 POTCAR:    PAW_PBE O 08Apr2002                   
  local pseudopotential read in
  partial core-charges read in
  partial kinetic energy density read in
  kinetic energy density of atom read in
  atomic valenz-charges read in
  non local Contribution for L=           0  read in
    real space projection operators read in
  non local Contribution for L=           0  read in
    real space projection operators read in
  non local Contribution for L=           1  read in
    real space projection operators read in
  non local Contribution for L=           1  read in
    real space projection operators read in
    PAW grid and wavefunctions read in
 
   number of l-projection  operators is LMAX  =           4
   number of lm-projection operators is LMMAX =           8
 
 Optimization of the real space projectors (new method)

 maximal supplied QI-value         = 25.13
 optimisation between [QCUT,QGAM] = [ 10.81, 21.61] = [ 32.71,130.83] Ry 
 Optimized for a Real-space Cutoff    1.23 Angstroem

   l    n(q)    QCUT    max X(q) W(low)/X(q) W(high)/X(q)  e(spline) 
   0      8    10.807   115.676    0.36E-03    0.72E-03    0.24E-06
   0      8    10.807    87.132    0.35E-03    0.71E-03    0.24E-06
   1      7    10.807     4.429    0.19E-03    0.39E-03    0.11E-06
   1      7    10.807     2.733    0.14E-03    0.28E-03    0.13E-06
 Optimization of the real space projectors (new method)

 maximal supplied QI-value         = 34.20
 optimisation between [QCUT,QGAM] = [ 10.60, 21.55] = [ 31.48,130.03] Ry 
 Optimized for a Real-space Cutoff    1.23 Angstroem

   l    n(q)    QCUT    max X(q) W(low)/X(q) W(high)/X(q)  e(spline) 
   0      8    10.603    19.460    0.37E-03    0.59E-03    0.23E-06
   0      8    10.603    12.209    0.35E-03    0.56E-03    0.22E-06
   1      7    10.603     4.655    0.70E-04    0.28E-03    0.29E-06
 Optimization of the real space projectors (new method)

 maximal supplied QI-value         = 24.76
 optimisation between [QCUT,QGAM] = [ 10.64, 21.54] = [ 31.73,129.89] Ry 
 Optimized for a Real-space Cutoff    1.23 Angstroem

   l    n(q)    QCUT    max X(q) W(low)/X(q) W(high)/X(q)  e(spline) 
   0      8    10.645    20.381    0.38E-03    0.60E-03    0.15E-06
   0      8    10.645    15.268    0.40E-03    0.65E-03    0.17E-06
   1      7    10.645     5.964    0.30E-03    0.63E-03    0.18E-06
   1      7    10.645     5.382    0.24E-03    0.53E-03    0.16E-06
  PAW_PBE C 08Apr2002                   :
 energy of atom  1       EATOM= -147.1560
 kinetic energy error for atom=    0.0116 (will be added to EATOM!!)
  PAW_PBE H 15Jun2001                   :
 energy of atom  2       EATOM=  -12.4884
 kinetic energy error for atom=    0.0045 (will be added to EATOM!!)
  PAW_PBE O 08Apr2002                   :
 energy of atom  3       EATOM= -432.3788
 kinetic energy error for atom=    0.0389 (will be added to EATOM!!)
 
 
 POSCAR: C  H  O                                 
  positions in cartesian coordinates
  No initial velocities read in
 exchange correlation table for  LEXCH =        8
   RHO(1)=    0.500       N(1)  =     2000
   RHO(2)=  100.500       N(2)  =     4000
 


--------------------------------------------------------------------------------------------------------


 ion  position               nearest neighbor table
   1  0.137  0.162  0.340-  26 1.38   2 1.39   6 1.41
   2  0.196  0.198  0.351-  11 1.09   1 1.39   3 1.41
   3  0.200  0.266  0.334-   4 1.39   2 1.41   8 1.51
   4  0.144  0.297  0.306-  12 1.09   3 1.39   5 1.40
   5  0.085  0.262  0.295-  13 1.09   6 1.39   4 1.40
   6  0.080  0.195  0.312-  25 1.37   5 1.39   1 1.41
   7  0.182  0.059  0.380-  16 1.10  15 1.10  17 1.10  26 1.43
   8  0.265  0.302  0.345-  18 1.11  27 1.43   3 1.51   9 1.54
   9  0.318  0.281  0.293-  19 1.10  24 1.10  10 1.52   8 1.54
  10  0.388  0.305  0.310-  22 1.11  21 1.11  28 1.45   9 1.52
  11  0.239  0.173  0.373-   2 1.09
  12  0.147  0.350  0.294-   4 1.09
  13  0.041  0.287  0.274-   5 1.09
  14  0.030  0.114  0.316-  25 0.98
  15  0.198  0.080  0.429-   7 1.10
  16  0.165  0.008  0.387-   7 1.10
  17  0.225  0.061  0.345-   7 1.10
  18  0.285  0.287  0.395-   8 1.11
  19  0.320  0.226  0.290-   9 1.10
  20  0.298  0.393  0.337-  27 0.98
  21  0.402  0.286  0.361-  10 1.11
  22  0.425  0.286  0.274-  10 1.11
  23  0.431  0.393  0.327-  28 0.97
  24  0.303  0.300  0.244-   9 1.10
  25  0.022  0.160  0.301-  14 0.98   6 1.37
  26  0.127  0.095  0.354-   1 1.38   7 1.43
  27  0.254  0.372  0.344-  20 0.98   8 1.43
  28  0.388  0.377  0.311-  23 0.97  10 1.45
 
  LATTYP: Found a simple cubic cell.
 ALAT       =    20.0000000000
  
  Lattice vectors:
  
 A1 = (  20.0000000000,   0.0000000000,   0.0000000000)
 A2 = (   0.0000000000,  20.0000000000,   0.0000000000)
 A3 = (   0.0000000000,   0.0000000000,  20.0000000000)


Analysis of symmetry for initial positions (statically):
=====================================================================
 Subroutine PRICEL returns:
 Original cell was already a primitive cell.
 

 Routine SETGRP: Setting up the symmetry group for a 
 simple cubic supercell.


 Subroutine GETGRP returns: Found  1 space group operations
 (whereof  1 operations were pure point group operations)
 out of a pool of 48 trial point group operations.


The static configuration has the point symmetry C_1 .


Analysis of symmetry for dynamics (positions and initial velocities):
=====================================================================
 Subroutine PRICEL returns:
 Original cell was already a primitive cell.
 

 Routine SETGRP: Setting up the symmetry group for a 
 simple cubic supercell.


 Subroutine GETGRP returns: Found  1 space group operations
 (whereof  1 operations were pure point group operations)
 out of a pool of 48 trial point group operations.


The dynamic configuration has the point symmetry C_1 .


Analysis of constrained symmetry for selective dynamics:
=====================================================================
 Subroutine PRICEL returns:
 Original cell was already a primitive cell.
 

 Routine SETGRP: Setting up the symmetry group for a 
 simple cubic supercell.


 Subroutine GETGRP returns: Found  1 space group operations
 (whereof  1 operations were pure point group operations)
 out of a pool of 48 trial point group operations.


The constrained configuration has the point symmetry C_1 .


 Subroutine INISYM returns: Found  1 space group operations
 (whereof  1 operations are pure point group operations),
 and found     1 'primitive' translations

 
 
 KPOINTS: K-POINTS                                

Automatic generation of k-mesh.
Space group operators:
 irot       det(A)        alpha          n_x          n_y          n_z        tau_x        tau_y        tau_z
    1     1.000000     0.000000     1.000000     0.000000     0.000000     0.000000     0.000000     0.000000
 
 Subroutine IBZKPT returns following result:
 ===========================================
 
 Found      1 irreducible k-points:
 
 Following reciprocal coordinates:
            Coordinates               Weight
  0.000000  0.000000  0.000000      1.000000
 
 Following cartesian coordinates:
            Coordinates               Weight
  0.000000  0.000000  0.000000      1.000000
 


--------------------------------------------------------------------------------------------------------




 Dimension of arrays:
   k-points           NKPTS =      1   k-points in BZ     NKDIM =      1   number of bands    NBANDS=     60
   number of dos      NEDOS =    301   number of ions     NIONS =     28
   non local maximal  LDIM  =      4   non local SUM 2l+1 LMDIM =      8
   total plane-waves  NPLWV = ******
   max r-space proj   IRMAX =   1268   max aug-charges    IRDMAX=   2242
   dimension x,y,z NGX =   108 NGY =  108 NGZ =  108
   dimension x,y,z NGXF=   216 NGYF=  216 NGZF=  216
   support grid    NGXF=   216 NGYF=  216 NGZF=  216
   ions per type =              10  14   4
   NGX,Y,Z   is equivalent  to a cutoff of   8.98,  8.98,  8.98 a.u.
   NGXF,Y,Z  is equivalent  to a cutoff of  17.95, 17.95, 17.95 a.u.

 SYSTEM =  ag-1211-a                               
 POSCAR =  C  H  O                                 

 Startparameter for this run:
   NWRITE =      0    write-flag & timer
   PREC   = normal    normal or accurate (medium, high low for compatibility)
   ISTART =      0    job   : 0-new  1-cont  2-samecut
   ICHARG =      2    charge: 1-file 2-atom 10-const
   ISPIN  =      1    spin polarized calculation?
   LNONCOLLINEAR =      F non collinear calculations
   LSORBIT =      F    spin-orbit coupling
   INIWAV =      1    electr: 0-lowe 1-rand  2-diag
   LASPH  =      F    aspherical Exc in radial PAW
   METAGGA=      F    non-selfconsistent MetaGGA calc.

 Electronic Relaxation 1
   ENCUT  =  450.0 eV  33.07 Ry    5.75 a.u.  34.59 34.59 34.59*2*pi/ulx,y,z
   ENINI  =  450.0     initial cutoff
   ENAUG  =  644.9 eV  augmentation charge cutoff
   NELM   =     50;   NELMIN=  5; NELMDL= -7     # of ELM steps 
   EDIFF  = 0.1E-04   stopping-criterion for ELM
   LREAL  =      T    real-space projection
   NLSPLINE    = F    spline interpolate recip. space projectors
   LCOMPAT=      F    compatible to vasp.4.4
   GGA_COMPAT  = T    GGA compatible to vasp.4.4-vasp.4.6
   LMAXPAW     = -100 max onsite density
   LMAXMIX     =    2 max onsite mixed and CHGCAR
   VOSKOWN=      0    Vosko Wilk Nusair interpolation
   ROPT   =   -0.00050  -0.00050  -0.00050
 Ionic relaxation
   EDIFFG = -.2E-01   stopping-criterion for IOM
   NSW    =    300    number of steps for IOM
   NBLOCK =      1;   KBLOCK =    300    inner block; outer block 
   IBRION =      2    ionic relax: 0-MD 1-quasi-New 2-CG
   NFREE  =      2    steps in history (QN), initial steepest desc. (CG)
   ISIF   =      2    stress and relaxation
   IWAVPR =     11    prediction:  0-non 1-charg 2-wave 3-comb
   ISYM   =      2    0-nonsym 1-usesym 2-fastsym
   LCORR  =      T    Harris-Foulkes like correction to forces

   POTIM  = 0.1500    time-step for ionic-motion
   TEIN   =    0.0    initial temperature
   TEBEG  =    0.0;   TEEND  =   0.0 temperature during run
   SMASS  =  -3.00    Nose mass-parameter (am)
   estimated Nose-frequenzy (Omega)   =  0.10E-29 period in steps =****** mass=  -0.914E-26a.u.
   SCALEE = 1.0000    scale energy and forces
   NPACO  =    256;   APACO  = 16.0  distance and # of slots for P.C.
   PSTRESS=    0.0 pullay stress

  Mass of Ions in am
   POMASS =  12.01  1.00 16.00
  Ionic Valenz
   ZVAL   =   4.00  1.00  6.00
  Atomic Wigner-Seitz radii
   RWIGS  =  -1.00 -1.00 -1.00
  virtual crystal weights 
   VCA    =   1.00  1.00  1.00
   NELECT =      78.0000    total number of electrons
   NUPDOWN=      -1.0000    fix difference up-down

 DOS related values:
   EMIN   =  10.00;   EMAX   =-10.00  energy-range for DOS
   EFERMI =   0.00
   ISMEAR =     0;   SIGMA  =   0.03  broadening in eV -4-tet -1-fermi 0-gaus

 Electronic relaxation 2 (details)
   IALGO  =     68    algorithm
   LDIAG  =      T    sub-space diagonalisation (order eigenvalues)
   LSUBROT=      F    optimize rotation matrix (better conditioning)
   TURBO    =      0    0=normal 1=particle mesh
   IRESTART =      0    0=no restart 2=restart with 2 vectors
   NREBOOT  =      0    no. of reboots
   NMIN     =      0    reboot dimension
   EREF     =   0.00    reference energy to select bands
   IMIX   =      4    mixing-type and parameters
     AMIX     =   0.40;   BMIX     =  1.00
     AMIX_MAG =   1.60;   BMIX_MAG =  1.00
     AMIN     =   0.10
     WC   =   100.;   INIMIX=   1;  MIXPRE=   1;  MAXMIX= -45

 Intra band minimization:
   WEIMIN = 0.0010     energy-eigenvalue tresh-hold
   EBREAK =  0.42E-07  absolut break condition
   DEPER  =   0.30     relativ break condition  

   TIME   =   0.40     timestep for ELM

  volume/ion in A,a.u.               =     285.71      1928.10
  Fermi-wavevector in a.u.,A,eV,Ry     =   0.349738  0.660909  1.664221  0.122317
  Thomas-Fermi vector in A             =   1.261030
 
 Write flags
   LWAVE        =      F    write WAVECAR
   LDOWNSAMPLE  =      F    k-point downsampling of WAVECAR
   LCHARG       =      F    write CHGCAR
   LVTOT        =      F    write LOCPOT, total local potential
   LVHAR        =      F    write LOCPOT, Hartree potential only
   LELF         =      F    write electronic localiz. function (ELF)
   LORBIT       =      0    0 simple, 1 ext, 2 COOP (PROOUT), +10 PAW based schemes


 Dipole corrections
   LMONO  =      F    monopole corrections only (constant potential shift)
   LDIPOL =      F    correct potential (dipole corrections)
   IDIPOL =      0    1-x, 2-y, 3-z, 4-all directions 
   EPSILON=  1.0000000 bulk dielectric constant

 Exchange correlation treatment:
   GGA     =    PE    GGA type
   LEXCH   =     8    internal setting for exchange type
   VOSKOWN=      0    Vosko Wilk Nusair interpolation
   LHFCALC =     F    Hartree Fock is set to
   LHFONE  =     F    Hartree Fock one center treatment
   AEXX    =    0.0000 exact exchange contribution

 Linear response parameters
   LEPSILON=     F    determine dielectric tensor
   LRPA    =     F    only Hartree local field effects (RPA)
   LNABLA  =     F    use nabla operator in PAW spheres
   LVEL    =     F    velocity operator in full k-point grid
   LINTERFAST=   F  fast interpolation
   KINTER  =     0    interpolate to denser k-point grid
   CSHIFT  =0.1000    complex shift for real part using Kramers Kronig
   OMEGAMAX=  -1.0    maximum frequency
   DEG_THRESHOLD= 0.2000000E-02 threshold for treating states as degnerate
   RTIME   =   -0.100 relaxation time in fs
  (WPLASMAI=    0.000 imaginary part of plasma frequency in eV, 0.658/RTIME)
   DFIELD  = 0.0000000 0.0000000 0.0000000 field for delta impulse in time
 
 Orbital magnetization related:
   ORBITALMAG=     F  switch on orbital magnetization
   LCHIMAG   =     F  perturbation theory with respect to B field
   DQ        =  0.001000  dq finite difference perturbation B field
   LLRAUG    =     F  two centre corrections for induced B field



--------------------------------------------------------------------------------------------------------


 conjugate gradient relaxation of ions
   using selective dynamics as specified on POSCAR
   WARNING: If single coordinates had been selected the selection of coordinates
            is made according to the corresponding   d i r e c t   coordinates!
            Don't support selection of single cartesian coordinates -- sorry ...
  !
 charge density and potential will be updated during run
 non-spin polarized calculation
 RMM-DIIS sequential band-by-band and
  variant of blocked Davidson during initial phase
 perform sub-space diagonalisation
    before iterative eigenvector-optimisation
 modified Broyden-mixing scheme, WC =      100.0
 initial mixing is a Kerker type mixing with AMIX =  0.4000 and BMIX =      1.0000
 Hartree-type preconditioning will be used
 using additional bands           21
 real space projection scheme for non local part
 use partial core corrections
 calculate Harris-corrections to forces 
   (improved forces if not selfconsistent)
 use gradient corrections 
 use of overlap-Matrix (Vanderbilt PP)
 Gauss-broadening in eV      SIGMA  =   0.03


--------------------------------------------------------------------------------------------------------


  energy-cutoff  :      450.00
  volume of cell :     8000.00
      direct lattice vectors                 reciprocal lattice vectors
    20.000000000  0.000000000  0.000000000     0.050000000  0.000000000  0.000000000
     0.000000000 20.000000000  0.000000000     0.000000000  0.050000000  0.000000000
     0.000000000  0.000000000 20.000000000     0.000000000  0.000000000  0.050000000

  length of vectors
    20.000000000 20.000000000 20.000000000     0.050000000  0.050000000  0.050000000


 
 k-points in units of 2pi/SCALE and weight: K-POINTS                                
   0.00000000  0.00000000  0.00000000       1.000
 
 k-points in reciprocal lattice and weights: K-POINTS                                
   0.00000000  0.00000000  0.00000000       1.000
 
 position of ions in fractional coordinates (direct lattice) 
   0.13666172  0.16218566  0.33968722
   0.19559476  0.19757448  0.35078064
   0.19976998  0.26570600  0.33392757
   0.14409733  0.29745073  0.30640486
   0.08464496  0.26204155  0.29544302
   0.08039405  0.19458520  0.31182783
   0.18218985  0.05935182  0.38019992
   0.26534645  0.30190143  0.34513098
   0.31826751  0.28085009  0.29315242
   0.38828620  0.30491851  0.31046350
   0.23876980  0.17271504  0.37307058
   0.14729316  0.35041617  0.29421171
   0.04079659  0.28654116  0.27419741
   0.02975151  0.11391464  0.31574176
   0.19837729  0.08028923  0.42861803
   0.16509414  0.00771991  0.38703799
   0.22453774  0.06058377  0.34483673
   0.28464799  0.28695689  0.39516763
   0.31958837  0.22585274  0.29017560
   0.29819540  0.39303130  0.33727260
   0.40243389  0.28606319  0.36052242
   0.42497515  0.28618289  0.27364462
   0.43127208  0.39290353  0.32708312
   0.30304857  0.29987612  0.24373071
   0.02206042  0.16001410  0.30138700
   0.12651097  0.09548455  0.35416204
   0.25420768  0.37243481  0.34391100
   0.38832093  0.37728675  0.31063327
 
 position of ions in cartesian coordinates  (Angst):
   2.73323440  3.24371323  6.79374446
   3.91189516  3.95148951  7.01561281
   3.99539966  5.31411998  6.67855130
   2.88194652  5.94901453  6.12809712
   1.69289915  5.24083095  5.90886050
   1.60788110  3.89170408  6.23655656
   3.64379702  1.18703633  7.60399832
   5.30692903  6.03802868  6.90261964
   6.36535021  5.61700172  5.86304835
   7.76572409  6.09837024  6.20927008
   4.77539603  3.45430075  7.46141158
   2.94586320  7.00832337  5.88423429
   0.81593175  5.73082327  5.48394828
   0.59503027  2.27829288  6.31483513
   3.96754572  1.60578468  8.57236052
   3.30188271  0.15439817  7.74075984
   4.49075474  1.21167535  6.89673465
   5.69295974  5.73913788  7.90335265
   6.39176735  4.51705476  5.80351195
   5.96390792  7.86062606  6.74545210
   8.04867782  5.72126375  7.21044848
   8.49950309  5.72365782  5.47289230
   8.62544157  7.85807063  6.54166247
   6.06097134  5.99752238  4.87461417
   0.44120842  3.20028202  6.02773993
   2.53021940  1.90969097  7.08324089
   5.08415365  7.44869629  6.87822003
   7.76641855  7.54573510  6.21266534
 


--------------------------------------------------------------------------------------------------------


 k-point  1 :   0.0000 0.0000 0.0000  plane waves:  173541

 maximum and minimum number of plane-waves per node :    173541   173541

 maximum number of plane-waves:    173541
 maximum index in each direction: 
   IXMAX=   34   IYMAX=   34   IZMAX=   34
   IXMIN=  -34   IYMIN=  -34   IZMIN=  -34


 serial   3D FFT for wavefunctions
 parallel 3D FFT for charge:
    minimum data exchange during FFTs selected (reduces bandwidth)


 total amount of memory used by VASP MPI-rank0   184690. kBytes
=======================================================================

   base      :      30000. kBytes
   nonlr-proj:       2477. kBytes
   fftplans  :      33533. kBytes
   grid      :     104696. kBytes
   one-center:         86. kBytes
   wavefun   :      13898. kBytes
 
     INWAV:  cpu time    0.0000: real time    0.0002
 Broyden mixing: mesh for mixing (old mesh)
   NGX = 69   NGY = 69   NGZ = 69
  (NGX  =216   NGY  =216   NGZ  =216)
  gives a total of 328509 points

 initial charge density was supplied:
 charge density of overlapping atoms calculated
 number of electron      78.0000000 magnetization 
 keeping initial charge density in first step


--------------------------------------------------------------------------------------------------------


 Maximum index for non-local projection operator         1194
 Maximum index for augmentation-charges          193 (set IRDMAX)


--------------------------------------------------------------------------------------------------------


 First call to EWALD:  gamma=   0.089
 Maximum number of real-space cells 3x 3x 3
 Maximum number of reciprocal cells 3x 3x 3

    FEWALD:  cpu time    0.0030: real time    0.0033


--------------------------------------- Iteration      1(   1)  ---------------------------------------


    POTLOK:  cpu time    1.3938: real time    1.3977
    SETDIJ:  cpu time    0.0060: real time    0.0061
     EDDAV:  cpu time    5.2152: real time    5.2297
       DOS:  cpu time    0.0000: real time    0.0006
    --------------------------------------------
      LOOP:  cpu time    6.6150: real time    6.6342

 eigenvalue-minimisations  :   144
 total energy-change (2. order) : 0.7381830E+03  (-0.1664523E+04)
 number of electron      78.0000000 magnetization 
 augmentation part       78.0000000 magnetization 

 Free energy of the ion-electron system (eV)
  ---------------------------------------------------
  alpha Z        PSCENC =         3.23806703
  Ewald energy   TEWEN  =      7171.48112203
  -Hartree energ DENC   =     -9634.80514756
  -exchange      EXHF   =         0.00000000
  -V(xc)+E(xc)   XCENC  =       275.30137128
  PAW double counting   =      2501.29475547    -2514.30778519
  entropy T*S    EENTRO =        -0.00123382
  eigenvalues    EBANDS =      -439.59590364
  atomic energy  EATOM  =      3375.57778277
  Solvation  Ediel_sol  =         0.00000000
  ---------------------------------------------------
  free energy    TOTEN  =       738.18302837 eV

  energy without entropy =      738.18426219  energy(sigma->0) =      738.18364528


--------------------------------------------------------------------------------------------------------




--------------------------------------- Iteration      1(   2)  ---------------------------------------


     EDDAV:  cpu time    6.8600: real time    6.8771
       DOS:  cpu time    0.0010: real time    0.0005
    --------------------------------------------
      LOOP:  cpu time    6.8610: real time    6.8775

 eigenvalue-minimisations  :   204
 total energy-change (2. order) :-0.4990877E+03  (-0.4623822E+03)
 number of electron      78.0000000 magnetization 
 augmentation part       78.0000000 magnetization 

 Free energy of the ion-electron system (eV)
  ---------------------------------------------------
  alpha Z        PSCENC =         3.23806703
  Ewald energy   TEWEN  =      7171.48112203
  -Hartree energ DENC   =     -9634.80514756
  -exchange      EXHF   =         0.00000000
  -V(xc)+E(xc)   XCENC  =       275.30137128
  PAW double counting   =      2501.29475547    -2514.30778519
  entropy T*S    EENTRO =        -0.00004653
  eigenvalues    EBANDS =      -938.68483940
  atomic energy  EATOM  =      3375.57778277
  Solvation  Ediel_sol  =         0.00000000
  ---------------------------------------------------
  free energy    TOTEN  =       239.09527990 eV

  energy without entropy =      239.09532643  energy(sigma->0) =      239.09530316


--------------------------------------------------------------------------------------------------------




--------------------------------------- Iteration      1(   3)  ---------------------------------------


     EDDAV:  cpu time    6.2051: real time    6.2216
       DOS:  cpu time    0.0000: real time    0.0003
    --------------------------------------------
      LOOP:  cpu time    6.2051: real time    6.2219

 eigenvalue-minimisations  :   180
 total energy-change (2. order) :-0.3646335E+03  (-0.3606014E+03)
 number of electron      78.0000000 magnetization 
 augmentation part       78.0000000 magnetization 

 Free energy of the ion-electron system (eV)
  ---------------------------------------------------
  alpha Z        PSCENC =         3.23806703
  Ewald energy   TEWEN  =      7171.48112203
  -Hartree energ DENC   =     -9634.80514756
  -exchange      EXHF   =         0.00000000
  -V(xc)+E(xc)   XCENC  =       275.30137128
  PAW double counting   =      2501.29475547    -2514.30778519
  entropy T*S    EENTRO =        -0.00000000
  eigenvalues    EBANDS =     -1303.31835156
  atomic energy  EATOM  =      3375.57778277
  Solvation  Ediel_sol  =         0.00000000
  ---------------------------------------------------
  free energy    TOTEN  =      -125.53818574 eV

  energy without entropy =     -125.53818574  energy(sigma->0) =     -125.53818574


--------------------------------------------------------------------------------------------------------




--------------------------------------- Iteration      1(   4)  ---------------------------------------


     EDDAV:  cpu time    5.5242: real time    5.5373
       DOS:  cpu time    0.0000: real time    0.0004
    --------------------------------------------
      LOOP:  cpu time    5.5242: real time    5.5377

 eigenvalue-minimisations  :   156
 total energy-change (2. order) :-0.5673201E+02  (-0.5661959E+02)
 number of electron      78.0000000 magnetization 
 augmentation part       78.0000000 magnetization 

 Free energy of the ion-electron system (eV)
  ---------------------------------------------------
  alpha Z        PSCENC =         3.23806703
  Ewald energy   TEWEN  =      7171.48112203
  -Hartree energ DENC   =     -9634.80514756
  -exchange      EXHF   =         0.00000000
  -V(xc)+E(xc)   XCENC  =       275.30137128
  PAW double counting   =      2501.29475547    -2514.30778519
  entropy T*S    EENTRO =        -0.00000000
  eigenvalues    EBANDS =     -1360.05036242
  atomic energy  EATOM  =      3375.57778277
  Solvation  Ediel_sol  =         0.00000000
  ---------------------------------------------------
  free energy    TOTEN  =      -182.27019659 eV

  energy without entropy =     -182.27019659  energy(sigma->0) =     -182.27019659


--------------------------------------------------------------------------------------------------------




--------------------------------------- Iteration      1(   5)  ---------------------------------------


     EDDAV:  cpu time    5.5142: real time    5.5298
       DOS:  cpu time    0.0000: real time    0.0004
    --------------------------------------------
      LOOP:  cpu time    5.5142: real time    5.5301

 eigenvalue-minimisations  :   156
 total energy-change (2. order) :-0.1014901E+01  (-0.1008634E+01)
 number of electron      78.0000000 magnetization 
 augmentation part       78.0000000 magnetization 

 Free energy of the ion-electron system (eV)
  ---------------------------------------------------
  alpha Z        PSCENC =         3.23806703
  Ewald energy   TEWEN  =      7171.48112203
  -Hartree energ DENC   =     -9634.80514756
  -exchange      EXHF   =         0.00000000
  -V(xc)+E(xc)   XCENC  =       275.30137128
  PAW double counting   =      2501.29475547    -2514.30778519
  entropy T*S    EENTRO =        -0.00000000
  eigenvalues    EBANDS =     -1361.06526375
  atomic energy  EATOM  =      3375.57778277
  Solvation  Ediel_sol  =         0.00000000
  ---------------------------------------------------
  free energy    TOTEN  =      -183.28509793 eV

  energy without entropy =     -183.28509793  energy(sigma->0) =     -183.28509793


--------------------------------------------------------------------------------------------------------




--------------------------------------- Iteration      1(   6)  ---------------------------------------


     EDDAV:  cpu time    6.1731: real time    6.1895
       DOS:  cpu time    0.0010: real time    0.0003
    --------------------------------------------
      LOOP:  cpu time    6.1741: real time    6.1898

 eigenvalue-minimisations  :   180
 total energy-change (2. order) :-0.2538108E-01  (-0.2536095E-01)
 number of electron      78.0000000 magnetization 
 augmentation part       78.0000000 magnetization 

 Free energy of the ion-electron system (eV)
  ---------------------------------------------------
  alpha Z        PSCENC =         3.23806703
  Ewald energy   TEWEN  =      7171.48112203
  -Hartree energ DENC   =     -9634.80514756
  -exchange      EXHF   =         0.00000000
  -V(xc)+E(xc)   XCENC  =       275.30137128
  PAW double counting   =      2501.29475547    -2514.30778519
  entropy T*S    EENTRO =        -0.00000000
  eigenvalues    EBANDS =     -1361.09064483
  atomic energy  EATOM  =      3375.57778277
  Solvation  Ediel_sol  =         0.00000000
  ---------------------------------------------------
  free energy    TOTEN  =      -183.31047900 eV

  energy without entropy =     -183.31047900  energy(sigma->0) =     -183.31047900


--------------------------------------------------------------------------------------------------------




--------------------------------------- Iteration      1(   7)  ---------------------------------------


     EDDAV:  cpu time    5.8521: real time    5.8661
       DOS:  cpu time    0.0000: real time    0.0004
    CHARGE:  cpu time    0.4819: real time    0.4825
    MIXING:  cpu time    0.0340: real time    0.0347
    --------------------------------------------
      LOOP:  cpu time    6.3680: real time    6.3837

 eigenvalue-minimisations  :   168
 total energy-change (2. order) :-0.4124241E-03  (-0.4122816E-03)
 number of electron      78.0000022 magnetization 
 augmentation part        4.2984386 magnetization 

 Broyden mixing:
  rms(total) = 0.21525E+01    rms(broyden)= 0.21500E+01
  rms(prec ) = 0.23372E+01
  weight for this iteration     100.00

 Free energy of the ion-electron system (eV)
  ---------------------------------------------------
  alpha Z        PSCENC =         3.23806703
  Ewald energy   TEWEN  =      7171.48112203
  -Hartree energ DENC   =     -9634.80514756
  -exchange      EXHF   =         0.00000000
  -V(xc)+E(xc)   XCENC  =       275.30137128
  PAW double counting   =      2501.29475547    -2514.30778519
  entropy T*S    EENTRO =        -0.00000000
  eigenvalues    EBANDS =     -1361.09105726
  atomic energy  EATOM  =      3375.57778277
  Solvation  Ediel_sol  =         0.00000000
  ---------------------------------------------------
  free energy    TOTEN  =      -183.31089143 eV

  energy without entropy =     -183.31089143  energy(sigma->0) =     -183.31089143


--------------------------------------------------------------------------------------------------------




--------------------------------------- Iteration      1(   8)  ---------------------------------------


    POTLOK:  cpu time    1.2828: real time    1.2854
    SETDIJ:  cpu time    0.0060: real time    0.0059
    EDDIAG:  cpu time    0.9109: real time    0.9132
  RMM-DIIS:  cpu time    3.1955: real time    3.2043
    ORTHCH:  cpu time    0.1650: real time    0.1653
       DOS:  cpu time    0.0000: real time    0.0004
    CHARGE:  cpu time    0.4699: real time    0.4704
    MIXING:  cpu time    0.0370: real time    0.0377
    --------------------------------------------
      LOOP:  cpu time    6.0671: real time    6.0825

 eigenvalue-minimisations  :   120
 total energy-change (2. order) : 0.1204600E+02  (-0.2242342E+01)
 number of electron      78.0000024 magnetization 
 augmentation part        3.9761407 magnetization 

 Broyden mixing:
  rms(total) = 0.11276E+01    rms(broyden)= 0.11274E+01
  rms(prec ) = 0.12083E+01
  weight for this iteration     100.00

 eigenvalues of (default mixing * dielectric matrix)
  average eigenvalue GAMMA=   1.4743
  1.4743

 Free energy of the ion-electron system (eV)
  ---------------------------------------------------
  alpha Z        PSCENC =         3.23806703
  Ewald energy   TEWEN  =      7171.48112203
  -Hartree energ DENC   =     -9786.02447015
  -exchange      EXHF   =         0.00000000
  -V(xc)+E(xc)   XCENC  =       282.66763689
  PAW double counting   =      3748.93212680    -3763.81785831
  entropy T*S    EENTRO =        -0.00000000
  eigenvalues    EBANDS =     -1203.31930278
  atomic energy  EATOM  =      3375.57778277
  Solvation  Ediel_sol  =         0.00000000
  ---------------------------------------------------
  free energy    TOTEN  =      -171.26489572 eV

  energy without entropy =     -171.26489572  energy(sigma->0) =     -171.26489572


--------------------------------------------------------------------------------------------------------




--------------------------------------- Iteration      1(   9)  ---------------------------------------


    POTLOK:  cpu time    1.2878: real time    1.2904
    SETDIJ:  cpu time    0.0060: real time    0.0058
    EDDIAG:  cpu time    0.9109: real time    0.9130
  RMM-DIIS:  cpu time    3.1685: real time    3.1758
    ORTHCH:  cpu time    0.1650: real time    0.1654
       DOS:  cpu time    0.0000: real time    0.0002
    CHARGE:  cpu time    0.4689: real time    0.4700
    MIXING:  cpu time    0.0400: real time    0.0394
    --------------------------------------------
      LOOP:  cpu time    6.0471: real time    6.0600

 eigenvalue-minimisations  :   120
 total energy-change (2. order) : 0.2749811E+01  (-0.7583338E+00)
 number of electron      78.0000025 magnetization 
 augmentation part        3.8630296 magnetization 

 Broyden mixing:
  rms(total) = 0.49733E+00    rms(broyden)= 0.49718E+00
  rms(prec ) = 0.52553E+00
  weight for this iteration     100.00

 eigenvalues of (default mixing * dielectric matrix)
  average eigenvalue GAMMA=   1.6943
  1.2683  2.1203

 Free energy of the ion-electron system (eV)
  ---------------------------------------------------
  alpha Z        PSCENC =         3.23806703
  Ewald energy   TEWEN  =      7171.48112203
  -Hartree energ DENC   =     -9890.68648212
  -exchange      EXHF   =         0.00000000
  -V(xc)+E(xc)   XCENC  =       287.65459435
  PAW double counting   =      5178.47289449    -5194.02837954
  entropy T*S    EENTRO =        -0.00000000
  eigenvalues    EBANDS =     -1100.22468377
  atomic energy  EATOM  =      3375.57778277
  Solvation  Ediel_sol  =         0.00000000
  ---------------------------------------------------
  free energy    TOTEN  =      -168.51508475 eV

  energy without entropy =     -168.51508475  energy(sigma->0) =     -168.51508475


--------------------------------------------------------------------------------------------------------




--------------------------------------- Iteration      1(  10)  ---------------------------------------


    POTLOK:  cpu time    1.2938: real time    1.3016
    SETDIJ:  cpu time    0.0070: real time    0.0065
    EDDIAG:  cpu time    0.9099: real time    0.9118
  RMM-DIIS:  cpu time    3.1755: real time    3.1832
    ORTHCH:  cpu time    0.1650: real time    0.1647
       DOS:  cpu time    0.0000: real time    0.0002
    CHARGE:  cpu time    0.4679: real time    0.4692
    MIXING:  cpu time    0.0420: real time    0.0415
    --------------------------------------------
      LOOP:  cpu time    6.0611: real time    6.0788

 eigenvalue-minimisations  :   120
 total energy-change (2. order) : 0.4196963E+00  (-0.1087220E+00)
 number of electron      78.0000026 magnetization 
 augmentation part        3.8456417 magnetization 

 Broyden mixing:
  rms(total) = 0.13840E+00    rms(broyden)= 0.13831E+00
  rms(prec ) = 0.15940E+00
  weight for this iteration     100.00

 eigenvalues of (default mixing * dielectric matrix)
  average eigenvalue GAMMA=   1.6882
  1.0936  2.2430  1.7279

 Free energy of the ion-electron system (eV)
  ---------------------------------------------------
  alpha Z        PSCENC =         3.23806703
  Ewald energy   TEWEN  =      7171.48112203
  -Hartree energ DENC   =     -9935.90588403
  -exchange      EXHF   =         0.00000000
  -V(xc)+E(xc)   XCENC  =       289.75497012
  PAW double counting   =      6100.01310068    -6115.49008585
  entropy T*S    EENTRO =        -0.00000000
  eigenvalues    EBANDS =     -1056.76446121
  atomic energy  EATOM  =      3375.57778277
  Solvation  Ediel_sol  =         0.00000000
  ---------------------------------------------------
  free energy    TOTEN  =      -168.09538846 eV

  energy without entropy =     -168.09538846  energy(sigma->0) =     -168.09538846


--------------------------------------------------------------------------------------------------------




--------------------------------------- Iteration      1(  11)  ---------------------------------------


    POTLOK:  cpu time    1.2948: real time    1.2985
    SETDIJ:  cpu time    0.0130: real time    0.0130
    EDDIAG:  cpu time    0.9109: real time    0.9129
  RMM-DIIS:  cpu time    3.3905: real time    3.4013
    ORTHCH:  cpu time    0.1650: real time    0.1651
       DOS:  cpu time    0.0000: real time    0.0002
    CHARGE:  cpu time    0.4699: real time    0.4707
    MIXING:  cpu time    0.0450: real time    0.0452
    --------------------------------------------
      LOOP:  cpu time    6.2890: real time    6.3069

 eigenvalue-minimisations  :   124
 total energy-change (2. order) : 0.7360992E-01  (-0.1217898E-01)
 number of electron      78.0000026 magnetization 
 augmentation part        3.8367061 magnetization 

 Broyden mixing:
  rms(total) = 0.41660E-01    rms(broyden)= 0.41631E-01
  rms(prec ) = 0.65753E-01
  weight for this iteration     100.00

 eigenvalues of (default mixing * dielectric matrix)
  average eigenvalue GAMMA=   1.6457
  1.1368  1.1368  2.1546  2.1546

 Free energy of the ion-electron system (eV)
  ---------------------------------------------------
  alpha Z        PSCENC =         3.23806703
  Ewald energy   TEWEN  =      7171.48112203
  -Hartree energ DENC   =     -9950.24163579
  -exchange      EXHF   =         0.00000000
  -V(xc)+E(xc)   XCENC  =       290.13941003
  PAW double counting   =      6284.11969875    -6299.47116374
  entropy T*S    EENTRO =        -0.00000000
  eigenvalues    EBANDS =     -1042.86505963
  atomic energy  EATOM  =      3375.57778277
  Solvation  Ediel_sol  =         0.00000000
  ---------------------------------------------------
  free energy    TOTEN  =      -168.02177853 eV

  energy without entropy =     -168.02177853  energy(sigma->0) =     -168.02177853


--------------------------------------------------------------------------------------------------------




--------------------------------------- Iteration      1(  12)  ---------------------------------------


    POTLOK:  cpu time    1.3008: real time    1.3039
    SETDIJ:  cpu time    0.0060: real time    0.0061
    EDDIAG:  cpu time    0.9149: real time    0.9168
  RMM-DIIS:  cpu time    3.2975: real time    3.3044
    ORTHCH:  cpu time    0.1650: real time    0.1653
       DOS:  cpu time    0.0000: real time    0.0002
    CHARGE:  cpu time    0.4709: real time    0.4725
    MIXING:  cpu time    0.0470: real time    0.0465
    --------------------------------------------
      LOOP:  cpu time    6.2021: real time    6.2157

 eigenvalue-minimisations  :   122
 total energy-change (2. order) : 0.1675750E-01  (-0.1675671E-02)
 number of electron      78.0000026 magnetization 
 augmentation part        3.8354314 magnetization 

 Broyden mixing:
  rms(total) = 0.21724E-01    rms(broyden)= 0.21718E-01
  rms(prec ) = 0.43439E-01
  weight for this iteration     100.00

 eigenvalues of (default mixing * dielectric matrix)
  average eigenvalue GAMMA=   1.7387
  2.4422  2.4422  1.0317  1.1459  1.6312

 Free energy of the ion-electron system (eV)
  ---------------------------------------------------
  alpha Z        PSCENC =         3.23806703
  Ewald energy   TEWEN  =      7171.48112203
  -Hartree energ DENC   =     -9959.45670671
  -exchange      EXHF   =         0.00000000
  -V(xc)+E(xc)   XCENC  =       290.21208505
  PAW double counting   =      6267.77132336    -6283.07848523
  entropy T*S    EENTRO =        -0.00000000
  eigenvalues    EBANDS =     -1033.75020934
  atomic energy  EATOM  =      3375.57778277
  Solvation  Ediel_sol  =         0.00000000
  ---------------------------------------------------
  free energy    TOTEN  =      -168.00502104 eV

  energy without entropy =     -168.00502104  energy(sigma->0) =     -168.00502104


--------------------------------------------------------------------------------------------------------




--------------------------------------- Iteration      1(  13)  ---------------------------------------


    POTLOK:  cpu time    1.3138: real time    1.3172
    SETDIJ:  cpu time    0.0070: real time    0.0068
    EDDIAG:  cpu time    0.9069: real time    0.9090
  RMM-DIIS:  cpu time    3.2245: real time    3.2338
    ORTHCH:  cpu time    0.1660: real time    0.1658
       DOS:  cpu time    0.0000: real time    0.0002
    CHARGE:  cpu time    0.4709: real time    0.4728
    MIXING:  cpu time    0.0500: real time    0.0498
    --------------------------------------------
      LOOP:  cpu time    6.1391: real time    6.1554

 eigenvalue-minimisations  :   120
 total energy-change (2. order) : 0.9586627E-02  (-0.1824976E-02)
 number of electron      78.0000026 magnetization 
 augmentation part        3.8333015 magnetization 

 Broyden mixing:
  rms(total) = 0.12070E-01    rms(broyden)= 0.12064E-01
  rms(prec ) = 0.25009E-01
  weight for this iteration     100.00

 eigenvalues of (default mixing * dielectric matrix)
  average eigenvalue GAMMA=   1.9085
  3.5567  2.3957  1.0082  1.1344  1.6779  1.6779

 Free energy of the ion-electron system (eV)
  ---------------------------------------------------
  alpha Z        PSCENC =         3.23806703
  Ewald energy   TEWEN  =      7171.48112203
  -Hartree energ DENC   =     -9973.34244669
  -exchange      EXHF   =         0.00000000
  -V(xc)+E(xc)   XCENC  =       290.40183375
  PAW double counting   =      6256.79621163    -6272.09236944
  entropy T*S    EENTRO =        -0.00000000
  eigenvalues    EBANDS =     -1020.05563549
  atomic energy  EATOM  =      3375.57778277
  Solvation  Ediel_sol  =         0.00000000
  ---------------------------------------------------
  free energy    TOTEN  =      -167.99543441 eV

  energy without entropy =     -167.99543441  energy(sigma->0) =     -167.99543441


--------------------------------------------------------------------------------------------------------




--------------------------------------- Iteration      1(  14)  ---------------------------------------


    POTLOK:  cpu time    1.3128: real time    1.3152
    SETDIJ:  cpu time    0.0060: real time    0.0067
    EDDIAG:  cpu time    0.9129: real time    0.9145
  RMM-DIIS:  cpu time    3.1805: real time    3.1875
    ORTHCH:  cpu time    0.1630: real time    0.1642
       DOS:  cpu time    0.0010: real time    0.0004
    CHARGE:  cpu time    0.4779: real time    0.4792
    MIXING:  cpu time    0.0520: real time    0.0520
    --------------------------------------------
      LOOP:  cpu time    6.1061: real time    6.1197

 eigenvalue-minimisations  :   120
 total energy-change (2. order) :-0.5508788E-02  (-0.1236006E-02)
 number of electron      78.0000026 magnetization 
 augmentation part        3.8302894 magnetization 

 Broyden mixing:
  rms(total) = 0.69428E-02    rms(broyden)= 0.69342E-02
  rms(prec ) = 0.12639E-01
  weight for this iteration     100.00

 eigenvalues of (default mixing * dielectric matrix)
  average eigenvalue GAMMA=   1.9366
  4.2803  2.3586  1.8199  1.7132  0.9961  1.1940  1.1940

 Free energy of the ion-electron system (eV)
  ---------------------------------------------------
  alpha Z        PSCENC =         3.23806703
  Ewald energy   TEWEN  =      7171.48112203
  -Hartree energ DENC   =     -9984.01874284
  -exchange      EXHF   =         0.00000000
  -V(xc)+E(xc)   XCENC  =       290.51584783
  PAW double counting   =      6241.26818825    -6256.56055805
  entropy T*S    EENTRO =        -0.00000000
  eigenvalues    EBANDS =     -1009.50265021
  atomic energy  EATOM  =      3375.57778277
  Solvation  Ediel_sol  =         0.00000000
  ---------------------------------------------------
  free energy    TOTEN  =      -168.00094320 eV

  energy without entropy =     -168.00094320  energy(sigma->0) =     -168.00094320


--------------------------------------------------------------------------------------------------------




--------------------------------------- Iteration      1(  15)  ---------------------------------------


    POTLOK:  cpu time    1.3098: real time    1.3162
    SETDIJ:  cpu time    0.0060: real time    0.0063
    EDDIAG:  cpu time    0.9109: real time    0.9127
  RMM-DIIS:  cpu time    3.3875: real time    3.3950
    ORTHCH:  cpu time    0.1650: real time    0.1657
       DOS:  cpu time    0.0010: real time    0.0002
    CHARGE:  cpu time    0.4689: real time    0.4708
    MIXING:  cpu time    0.0560: real time    0.0561
    --------------------------------------------
      LOOP:  cpu time    6.3050: real time    6.3230

 eigenvalue-minimisations  :   123
 total energy-change (2. order) :-0.1000338E-01  (-0.3203683E-03)
 number of electron      78.0000026 magnetization 
 augmentation part        3.8302227 magnetization 

 Broyden mixing:
  rms(total) = 0.43878E-02    rms(broyden)= 0.43834E-02
  rms(prec ) = 0.79702E-02
  weight for this iteration     100.00

 eigenvalues of (default mixing * dielectric matrix)
  average eigenvalue GAMMA=   2.1479
  5.8220  2.6202  2.0561  2.0561  1.5253  0.9755  1.0642  1.0642

 Free energy of the ion-electron system (eV)
  ---------------------------------------------------
  alpha Z        PSCENC =         3.23806703
  Ewald energy   TEWEN  =      7171.48112203
  -Hartree energ DENC   =     -9987.33280364
  -exchange      EXHF   =         0.00000000
  -V(xc)+E(xc)   XCENC  =       290.52142658
  PAW double counting   =      6236.87822046    -6252.16835472
  entropy T*S    EENTRO =        -0.00000000
  eigenvalues    EBANDS =     -1006.20640709
  atomic energy  EATOM  =      3375.57778277
  Solvation  Ediel_sol  =         0.00000000
  ---------------------------------------------------
  free energy    TOTEN  =      -168.01094658 eV

  energy without entropy =     -168.01094658  energy(sigma->0) =     -168.01094658


--------------------------------------------------------------------------------------------------------




--------------------------------------- Iteration      1(  16)  ---------------------------------------


    POTLOK:  cpu time    1.3148: real time    1.3181
    SETDIJ:  cpu time    0.0080: real time    0.0076
    EDDIAG:  cpu time    0.9119: real time    0.9144
  RMM-DIIS:  cpu time    3.1875: real time    3.1966
    ORTHCH:  cpu time    0.1650: real time    0.1656
       DOS:  cpu time    0.0000: real time    0.0002
    CHARGE:  cpu time    0.4709: real time    0.4712
    MIXING:  cpu time    0.0610: real time    0.0612
    --------------------------------------------
      LOOP:  cpu time    6.1191: real time    6.1350

 eigenvalue-minimisations  :   119
 total energy-change (2. order) :-0.1107247E-01  (-0.1790315E-03)
 number of electron      78.0000026 magnetization 
 augmentation part        3.8300923 magnetization 

 Broyden mixing:
  rms(total) = 0.26176E-02    rms(broyden)= 0.26163E-02
  rms(prec ) = 0.44413E-02
  weight for this iteration     100.00

 eigenvalues of (default mixing * dielectric matrix)
  average eigenvalue GAMMA=   2.1294
  5.9496  2.9314  2.3380  1.7729  1.5358  1.5358  1.0928  1.0471  0.9607

 Free energy of the ion-electron system (eV)
  ---------------------------------------------------
  alpha Z        PSCENC =         3.23806703
  Ewald energy   TEWEN  =      7171.48112203
  -Hartree energ DENC   =     -9989.02038374
  -exchange      EXHF   =         0.00000000
  -V(xc)+E(xc)   XCENC  =       290.50262566
  PAW double counting   =      6235.35119784    -6250.63914480
  entropy T*S    EENTRO =        -0.00000000
  eigenvalues    EBANDS =     -1004.51328583
  atomic energy  EATOM  =      3375.57778277
  Solvation  Ediel_sol  =         0.00000000
  ---------------------------------------------------
  free energy    TOTEN  =      -168.02201905 eV

  energy without entropy =     -168.02201905  energy(sigma->0) =     -168.02201905


--------------------------------------------------------------------------------------------------------




--------------------------------------- Iteration      1(  17)  ---------------------------------------


    POTLOK:  cpu time    1.3118: real time    1.3148
    SETDIJ:  cpu time    0.0060: real time    0.0066
    EDDIAG:  cpu time    0.9139: real time    0.9152
  RMM-DIIS:  cpu time    3.3355: real time    3.3435
    ORTHCH:  cpu time    0.1690: real time    0.1701
       DOS:  cpu time    0.0010: real time    0.0004
    CHARGE:  cpu time    0.4689: real time    0.4703
    MIXING:  cpu time    0.0670: real time    0.0669
    --------------------------------------------
      LOOP:  cpu time    6.2730: real time    6.2878

 eigenvalue-minimisations  :   121
 total energy-change (2. order) :-0.5117276E-02  (-0.8108184E-04)
 number of electron      78.0000026 magnetization 
 augmentation part        3.8294049 magnetization 

 Broyden mixing:
  rms(total) = 0.20519E-02    rms(broyden)= 0.20510E-02
  rms(prec ) = 0.30978E-02
  weight for this iteration     100.00

 eigenvalues of (default mixing * dielectric matrix)
  average eigenvalue GAMMA=   2.3040
  7.0613  3.7501  2.3631  2.3631  1.9111  1.3982  1.1173  1.1173  0.9473  1.0108

 Free energy of the ion-electron system (eV)
  ---------------------------------------------------
  alpha Z        PSCENC =         3.23806703
  Ewald energy   TEWEN  =      7171.48112203
  -Hartree energ DENC   =     -9989.63723087
  -exchange      EXHF   =         0.00000000
  -V(xc)+E(xc)   XCENC  =       290.50254018
  PAW double counting   =      6238.12111739    -6253.41099994
  entropy T*S    EENTRO =        -0.00000000
  eigenvalues    EBANDS =     -1003.89953492
  atomic energy  EATOM  =      3375.57778277
  Solvation  Ediel_sol  =         0.00000000
  ---------------------------------------------------
  free energy    TOTEN  =      -168.02713632 eV

  energy without entropy =     -168.02713632  energy(sigma->0) =     -168.02713632


--------------------------------------------------------------------------------------------------------




--------------------------------------- Iteration      1(  18)  ---------------------------------------


    POTLOK:  cpu time    1.3048: real time    1.3095
    SETDIJ:  cpu time    0.0060: real time    0.0058
    EDDIAG:  cpu time    0.9069: real time    0.9099
  RMM-DIIS:  cpu time    3.1815: real time    3.1888
    ORTHCH:  cpu time    0.1690: real time    0.1694
       DOS:  cpu time    0.0010: real time    0.0003
    CHARGE:  cpu time    0.4689: real time    0.4700
    MIXING:  cpu time    0.0720: real time    0.0723
    --------------------------------------------
      LOOP:  cpu time    6.1101: real time    6.1261

 eigenvalue-minimisations  :   117
 total energy-change (2. order) :-0.4245190E-02  (-0.6489062E-04)
 number of electron      78.0000026 magnetization 
 augmentation part        3.8296634 magnetization 

 Broyden mixing:
  rms(total) = 0.90406E-03    rms(broyden)= 0.90380E-03
  rms(prec ) = 0.13889E-02
  weight for this iteration     100.00

 eigenvalues of (default mixing * dielectric matrix)
  average eigenvalue GAMMA=   2.2511
  7.1409  4.2470  2.3797  2.3797  1.7228  1.3786  1.3786  0.9722  1.0438  1.0596
  1.0596

 Free energy of the ion-electron system (eV)
  ---------------------------------------------------
  alpha Z        PSCENC =         3.23806703
  Ewald energy   TEWEN  =      7171.48112203
  -Hartree energ DENC   =     -9989.75434291
  -exchange      EXHF   =         0.00000000
  -V(xc)+E(xc)   XCENC  =       290.48541700
  PAW double counting   =      6237.59893870    -6252.88685984
  entropy T*S    EENTRO =        -0.00000000
  eigenvalues    EBANDS =     -1003.77150629
  atomic energy  EATOM  =      3375.57778277
  Solvation  Ediel_sol  =         0.00000000
  ---------------------------------------------------
  free energy    TOTEN  =      -168.03138152 eV

  energy without entropy =     -168.03138152  energy(sigma->0) =     -168.03138152


--------------------------------------------------------------------------------------------------------




--------------------------------------- Iteration      1(  19)  ---------------------------------------


    POTLOK:  cpu time    1.3038: real time    1.3068
    SETDIJ:  cpu time    0.0070: real time    0.0071
    EDDIAG:  cpu time    0.9089: real time    0.9113
  RMM-DIIS:  cpu time    3.0845: real time    3.0930
    ORTHCH:  cpu time    0.1710: real time    0.1710
       DOS:  cpu time    0.0000: real time    0.0002
    CHARGE:  cpu time    0.4689: real time    0.4701
    MIXING:  cpu time    0.0780: real time    0.0782
    --------------------------------------------
      LOOP:  cpu time    6.0221: real time    6.0378

 eigenvalue-minimisations  :   110
 total energy-change (2. order) :-0.7313118E-03  (-0.1176906E-04)
 number of electron      78.0000026 magnetization 
 augmentation part        3.8296479 magnetization 

 Broyden mixing:
  rms(total) = 0.55157E-03    rms(broyden)= 0.55140E-03
  rms(prec ) = 0.93066E-03
  weight for this iteration     100.00

 eigenvalues of (default mixing * dielectric matrix)
  average eigenvalue GAMMA=   2.3500
  7.5542  5.1652  2.6102  2.3694  2.1503  1.7879  1.3046  1.1217  1.1217  1.0869
  0.9642  0.9642

 Free energy of the ion-electron system (eV)
  ---------------------------------------------------
  alpha Z        PSCENC =         3.23806703
  Ewald energy   TEWEN  =      7171.48112203
  -Hartree energ DENC   =     -9989.83778123
  -exchange      EXHF   =         0.00000000
  -V(xc)+E(xc)   XCENC  =       290.48512706
  PAW double counting   =      6238.19089081    -6253.47831773
  entropy T*S    EENTRO =        -0.00000000
  eigenvalues    EBANDS =     -1003.68900357
  atomic energy  EATOM  =      3375.57778277
  Solvation  Ediel_sol  =         0.00000000
  ---------------------------------------------------
  free energy    TOTEN  =      -168.03211283 eV

  energy without entropy =     -168.03211283  energy(sigma->0) =     -168.03211283


--------------------------------------------------------------------------------------------------------




--------------------------------------- Iteration      1(  20)  ---------------------------------------


    POTLOK:  cpu time    1.3048: real time    1.3105
    SETDIJ:  cpu time    0.0060: real time    0.0058
    EDDIAG:  cpu time    0.9089: real time    0.9107
  RMM-DIIS:  cpu time    2.8406: real time    2.8470
    ORTHCH:  cpu time    0.1650: real time    0.1656
       DOS:  cpu time    0.0000: real time    0.0002
    CHARGE:  cpu time    0.4679: real time    0.4687
    MIXING:  cpu time    0.0840: real time    0.0844
    --------------------------------------------
      LOOP:  cpu time    5.7771: real time    5.7929

 eigenvalue-minimisations  :   103
 total energy-change (2. order) :-0.9098904E-03  (-0.6112239E-05)
 number of electron      78.0000026 magnetization 
 augmentation part        3.8295530 magnetization 

 Broyden mixing:
  rms(total) = 0.29720E-03    rms(broyden)= 0.29705E-03
  rms(prec ) = 0.46879E-03
  weight for this iteration     100.00

 eigenvalues of (default mixing * dielectric matrix)
  average eigenvalue GAMMA=   2.3227
  7.8282  5.3843  2.9308  2.3574  2.1781  1.8010  1.3341  1.3341  1.1057  0.9734
  0.9734  0.9973  0.9973

 Free energy of the ion-electron system (eV)
  ---------------------------------------------------
  alpha Z        PSCENC =         3.23806703
  Ewald energy   TEWEN  =      7171.48112203
  -Hartree energ DENC   =     -9989.90288829
  -exchange      EXHF   =         0.00000000
  -V(xc)+E(xc)   XCENC  =       290.48473259
  PAW double counting   =      6237.75326289    -6253.04128598
  entropy T*S    EENTRO =        -0.00000000
  eigenvalues    EBANDS =     -1003.62381576
  atomic energy  EATOM  =      3375.57778277
  Solvation  Ediel_sol  =         0.00000000
  ---------------------------------------------------
  free energy    TOTEN  =      -168.03302272 eV

  energy without entropy =     -168.03302272  energy(sigma->0) =     -168.03302272


--------------------------------------------------------------------------------------------------------




--------------------------------------- Iteration      1(  21)  ---------------------------------------


    POTLOK:  cpu time    1.3048: real time    1.3079
    SETDIJ:  cpu time    0.0070: real time    0.0064
    EDDIAG:  cpu time    0.9059: real time    0.9089
  RMM-DIIS:  cpu time    2.2397: real time    2.2473
    ORTHCH:  cpu time    0.1640: real time    0.1639
       DOS:  cpu time    0.0000: real time    0.0002
    CHARGE:  cpu time    0.4669: real time    0.4686
    MIXING:  cpu time    0.0910: real time    0.0915
    --------------------------------------------
      LOOP:  cpu time    5.1792: real time    5.1947

 eigenvalue-minimisations  :    78
 total energy-change (2. order) :-0.2026789E-03  (-0.7657180E-06)
 number of electron      78.0000026 magnetization 
 augmentation part        3.8295568 magnetization 

 Broyden mixing:
  rms(total) = 0.18022E-03    rms(broyden)= 0.18018E-03
  rms(prec ) = 0.29713E-03
  weight for this iteration     100.00

 eigenvalues of (default mixing * dielectric matrix)
  average eigenvalue GAMMA=   2.4323
  8.4630  5.8060  3.5475  2.5463  2.1962  2.1962  1.7645  1.2684  1.1380  1.1380
  1.0501  1.0501  0.9443  0.9443

 Free energy of the ion-electron system (eV)
  ---------------------------------------------------
  alpha Z        PSCENC =         3.23806703
  Ewald energy   TEWEN  =      7171.48112203
  -Hartree energ DENC   =     -9989.95610060
  -exchange      EXHF   =         0.00000000
  -V(xc)+E(xc)   XCENC  =       290.48479255
  PAW double counting   =      6237.56776759    -6252.85564392
  entropy T*S    EENTRO =        -0.00000000
  eigenvalues    EBANDS =     -1003.57101284
  atomic energy  EATOM  =      3375.57778277
  Solvation  Ediel_sol  =         0.00000000
  ---------------------------------------------------
  free energy    TOTEN  =      -168.03322540 eV

  energy without entropy =     -168.03322540  energy(sigma->0) =     -168.03322540


--------------------------------------------------------------------------------------------------------




--------------------------------------- Iteration      1(  22)  ---------------------------------------


    POTLOK:  cpu time    1.3038: real time    1.3066
    SETDIJ:  cpu time    0.0060: real time    0.0064
    EDDIAG:  cpu time    0.9119: real time    0.9142
  RMM-DIIS:  cpu time    2.2947: real time    2.3003
    ORTHCH:  cpu time    0.1720: real time    0.1730
       DOS:  cpu time    0.0000: real time    0.0002
    CHARGE:  cpu time    0.4689: real time    0.4700
    MIXING:  cpu time    0.0980: real time    0.0979
    --------------------------------------------
      LOOP:  cpu time    5.2552: real time    5.2685

 eigenvalue-minimisations  :    82
 total energy-change (2. order) :-0.1892228E-03  (-0.8010575E-06)
 number of electron      78.0000026 magnetization 
 augmentation part        3.8295891 magnetization 

 Broyden mixing:
  rms(total) = 0.16573E-03    rms(broyden)= 0.16566E-03
  rms(prec ) = 0.20307E-03
  weight for this iteration     100.00

 eigenvalues of (default mixing * dielectric matrix)
  average eigenvalue GAMMA=   2.4011
  8.5699  5.9550  3.8784  2.5510  2.2078  2.0680  1.6851  1.6851  1.2398  1.1060
  1.1060  1.0341  0.9723  0.9788  0.9788

 Free energy of the ion-electron system (eV)
  ---------------------------------------------------
  alpha Z        PSCENC =         3.23806703
  Ewald energy   TEWEN  =      7171.48112203
  -Hartree energ DENC   =     -9989.97954908
  -exchange      EXHF   =         0.00000000
  -V(xc)+E(xc)   XCENC  =       290.48396422
  PAW double counting   =      6237.50435606    -6252.79209626
  entropy T*S    EENTRO =        -0.00000000
  eigenvalues    EBANDS =     -1003.54706138
  atomic energy  EATOM  =      3375.57778277
  Solvation  Ediel_sol  =         0.00000000
  ---------------------------------------------------
  free energy    TOTEN  =      -168.03341462 eV

  energy without entropy =     -168.03341462  energy(sigma->0) =     -168.03341462


--------------------------------------------------------------------------------------------------------




--------------------------------------- Iteration      1(  23)  ---------------------------------------


    POTLOK:  cpu time    1.3008: real time    1.3043
    SETDIJ:  cpu time    0.0070: real time    0.0068
    EDDIAG:  cpu time    0.9119: real time    0.9139
  RMM-DIIS:  cpu time    2.1187: real time    2.1264
    ORTHCH:  cpu time    0.1720: real time    0.1726
       DOS:  cpu time    0.0010: real time    0.0002
    CHARGE:  cpu time    0.4679: real time    0.4700
    MIXING:  cpu time    0.1060: real time    0.1056
    --------------------------------------------
      LOOP:  cpu time    5.0852: real time    5.1000

 eigenvalue-minimisations  :    67
 total energy-change (2. order) :-0.3607648E-04  (-0.2211366E-06)
 number of electron      78.0000026 magnetization 
 augmentation part        3.8295699 magnetization 

 Broyden mixing:
  rms(total) = 0.49015E-04    rms(broyden)= 0.48973E-04
  rms(prec ) = 0.82698E-04
  weight for this iteration     100.00

 eigenvalues of (default mixing * dielectric matrix)
  average eigenvalue GAMMA=   2.4557
  8.6560  6.6156  4.2582  2.8768  2.4659  2.0128  2.0128  1.6689  1.4118  1.0920
  1.0920  1.1168  1.1168  0.9331  0.9810  0.9810

 Free energy of the ion-electron system (eV)
  ---------------------------------------------------
  alpha Z        PSCENC =         3.23806703
  Ewald energy   TEWEN  =      7171.48112203
  -Hartree energ DENC   =     -9989.99439767
  -exchange      EXHF   =         0.00000000
  -V(xc)+E(xc)   XCENC  =       290.48440282
  PAW double counting   =      6237.53821838    -6252.82605961
  entropy T*S    EENTRO =        -0.00000000
  eigenvalues    EBANDS =     -1003.53258644
  atomic energy  EATOM  =      3375.57778277
  Solvation  Ediel_sol  =         0.00000000
  ---------------------------------------------------
  free energy    TOTEN  =      -168.03345070 eV

  energy without entropy =     -168.03345070  energy(sigma->0) =     -168.03345070


--------------------------------------------------------------------------------------------------------




--------------------------------------- Iteration      1(  24)  ---------------------------------------


    POTLOK:  cpu time    1.2998: real time    1.3034
    SETDIJ:  cpu time    0.0080: real time    0.0076
    EDDIAG:  cpu time    0.9129: real time    0.9154
  RMM-DIIS:  cpu time    1.9787: real time    1.9846
    ORTHCH:  cpu time    0.1650: real time    0.1655
       DOS:  cpu time    0.0010: real time    0.0005
    CHARGE:  cpu time    0.4669: real time    0.4688
    MIXING:  cpu time    0.1130: real time    0.1127
    --------------------------------------------
      LOOP:  cpu time    4.9452: real time    4.9584

 eigenvalue-minimisations  :    58
 total energy-change (2. order) :-0.2574348E-04  (-0.9957905E-07)
 number of electron      78.0000026 magnetization 
 augmentation part        3.8295596 magnetization 

 Broyden mixing:
  rms(total) = 0.54380E-04    rms(broyden)= 0.54357E-04
  rms(prec ) = 0.67589E-04
  weight for this iteration     100.00

 eigenvalues of (default mixing * dielectric matrix)
  average eigenvalue GAMMA=   2.4196
  8.8314  6.6665  4.4991  2.9177  2.4339  2.0758  2.0758  1.6022  1.6022  1.1146
  1.1146  1.2526  1.1109  0.9901  0.9302  0.9576  0.9576

 Free energy of the ion-electron system (eV)
  ---------------------------------------------------
  alpha Z        PSCENC =         3.23806703
  Ewald energy   TEWEN  =      7171.48112203
  -Hartree energ DENC   =     -9989.99877823
  -exchange      EXHF   =         0.00000000
  -V(xc)+E(xc)   XCENC  =       290.48439660
  PAW double counting   =      6237.60026945    -6252.88811565
  entropy T*S    EENTRO =        -0.00000000
  eigenvalues    EBANDS =     -1003.52822044
  atomic energy  EATOM  =      3375.57778277
  Solvation  Ediel_sol  =         0.00000000
  ---------------------------------------------------
  free energy    TOTEN  =      -168.03347644 eV

  energy without entropy =     -168.03347644  energy(sigma->0) =     -168.03347644


--------------------------------------------------------------------------------------------------------




--------------------------------------- Iteration      1(  25)  ---------------------------------------


    POTLOK:  cpu time    1.2978: real time    1.3019
    SETDIJ:  cpu time    0.0080: real time    0.0078
    EDDIAG:  cpu time    0.9139: real time    0.9161
  RMM-DIIS:  cpu time    1.8767: real time    1.8828
    ORTHCH:  cpu time    0.1640: real time    0.1651
       DOS:  cpu time    0.0010: real time    0.0002
    --------------------------------------------
      LOOP:  cpu time    4.2614: real time    4.2740

 eigenvalue-minimisations  :    47
 total energy-change (2. order) :-0.7086680E-05  (-0.2647296E-07)
 number of electron      78.0000026 magnetization 
 augmentation part        3.8295596 magnetization 

 Free energy of the ion-electron system (eV)
  ---------------------------------------------------
  alpha Z        PSCENC =         3.23806703
  Ewald energy   TEWEN  =      7171.48112203
  -Hartree energ DENC   =     -9989.99848937
  -exchange      EXHF   =         0.00000000
  -V(xc)+E(xc)   XCENC  =       290.48426423
  PAW double counting   =      6237.57804207    -6252.86584216
  entropy T*S    EENTRO =        -0.00000000
  eigenvalues    EBANDS =     -1003.52843014
  atomic energy  EATOM  =      3375.57778277
  Solvation  Ediel_sol  =         0.00000000
  ---------------------------------------------------
  free energy    TOTEN  =      -168.03348353 eV

  energy without entropy =     -168.03348353  energy(sigma->0) =     -168.03348353


--------------------------------------------------------------------------------------------------------




 average (electrostatic) potential at core
  the test charge radii are     0.6991  0.5201  0.7215
  (the norm of the test charge is              1.0000)
       1 -59.9602       2 -58.5491       3 -58.4589       4 -58.1576       5 -58.3077
       6 -59.8188       7 -59.9707       8 -59.5694       9 -58.5735      10 -59.8908
      11 -42.2147      12 -41.3494      13 -41.7234      14 -44.6658      15 -42.2963
      16 -42.4256      17 -42.3070      18 -41.5200      19 -41.9675      20 -43.5792
      21 -42.1103      22 -42.0627      23 -45.0276      24 -41.6914      25 -80.9323
      26 -81.4836      27 -79.7530      28 -80.9162
 
 
 
 E-fermi :  -4.5633     XC(G=0):  -0.4495     alpha+bet : -0.2110


 k-point     1 :       0.0000    0.0000    0.0000
  band No.  band energies     occupation 
      1     -26.9262      2.00000
      2     -26.0414      2.00000
      3     -25.9025      2.00000
      4     -24.9343      2.00000
      5     -20.8767      2.00000
      6     -19.3750      2.00000
      7     -18.5443      2.00000
      8     -18.2367      2.00000
      9     -17.2298      2.00000
     10     -16.3194      2.00000
     11     -14.8849      2.00000
     12     -14.7431      2.00000
     13     -14.0073      2.00000
     14     -13.4368      2.00000
     15     -13.1771      2.00000
     16     -12.6847      2.00000
     17     -12.2037      2.00000
     18     -11.6054      2.00000
     19     -11.4927      2.00000
     20     -10.8697      2.00000
     21     -10.8175      2.00000
     22     -10.5501      2.00000
     23     -10.3749      2.00000
     24     -10.0025      2.00000
     25      -9.8623      2.00000
     26      -9.7132      2.00000
     27      -9.0683      2.00000
     28      -9.0045      2.00000
     29      -8.8064      2.00000
     30      -8.4685      2.00000
     31      -8.1146      2.00000
     32      -8.0168      2.00000
     33      -7.9583      2.00000
     34      -7.4321      2.00000
     35      -7.3508      2.00000
     36      -6.5553      2.00000
     37      -5.8859      2.00000
     38      -5.5240      2.00000
     39      -4.7661      2.00000
     40      -0.8743      0.00000
     41      -0.7781      0.00000
     42      -0.5197      0.00000
     43      -0.4006      0.00000
     44      -0.3297      0.00000
     45      -0.0192      0.00000
     46       0.0936      0.00000
     47       0.1678      0.00000
     48       0.2311      0.00000
     49       0.3613      0.00000
     50       0.4046      0.00000
     51       0.5280      0.00000
     52       0.5434      0.00000
     53       0.5769      0.00000
     54       0.5899      0.00000
     55       0.6195      0.00000
     56       0.7088      0.00000
     57       0.7967      0.00000
     58       0.8966      0.00000
     59       1.1113      0.00000
     60       2.3270      0.00000


--------------------------------------------------------------------------------------------------------


 soft charge-density along one line, spin component           1
         0         1         2         3         4         5         6         7         8         9
 total charge-density along one line
 
 pseudopotential strength for first ion, spin component:           1
 10.322  13.729  -0.007   0.001  -0.002   0.021  -0.004   0.005
 13.729  18.260  -0.009   0.002  -0.002   0.027  -0.005   0.006
 -0.007  -0.009  -4.452   0.005  -0.003   8.711  -0.008   0.004
  0.001   0.002   0.005  -4.434  -0.003  -0.008   8.679   0.004
 -0.002  -0.002  -0.003  -0.003  -4.441   0.004   0.004   8.689
  0.021   0.027   8.711  -0.008   0.004 -19.190   0.015  -0.007
 -0.004  -0.005  -0.008   8.679   0.004   0.015 -19.131  -0.004
  0.005   0.006   0.004   0.004   8.689  -0.007  -0.004 -19.143
 total augmentation occupancy for first ion, spin component:           1
  8.110  -3.672   0.056  -0.015  -0.014  -0.023   0.003  -0.011
 -3.672   1.761   0.074  -0.013   0.030   0.025  -0.004   0.009
  0.056   0.074   1.540  -0.051   0.051   0.161  -0.020   0.013
 -0.015  -0.013  -0.051   1.348   0.176  -0.020   0.083   0.028
 -0.014   0.030   0.051   0.176   1.828   0.013   0.028   0.158
 -0.023   0.025   0.161  -0.020   0.013   0.019  -0.003   0.002
  0.003  -0.004  -0.020   0.083   0.028  -0.003   0.006   0.003
 -0.011   0.009   0.013   0.028   0.158   0.002   0.003   0.015


------------------------ aborting loop because EDIFF is reached ----------------------------------------


    CHARGE:  cpu time    0.4699: real time    0.4709
    FORLOC:  cpu time    0.2120: real time    0.2129
    FORNL :  cpu time    1.0098: real time    1.0126
    STRESS:  cpu time    3.0265: real time    3.0343
    FORCOR:  cpu time    1.3908: real time    1.3948
    FORHAR:  cpu time    0.5039: real time    0.5053
    MIXING:  cpu time    0.1180: real time    0.1185
    OFIELD:  cpu time    0.0000: real time    0.0001

  DFT-D2 method for vdW energy calculation
  -------------------------------------------------------------------

  Parameters of vdW forcefield:
         C6(Jnm^6/mol)     R0(A)
   -----------------------------
   C        1.750          1.452
   H        0.140          1.001
   O        0.700          1.342

  IVDW =   1
  VDW_RADIUS =    40.000 A
  VDW_S6 =     0.750
  VDW_SR =     1.000
  VDW_D =    20.000
  LVDW_EWALD = F

  Number of pair interactions contributing to vdW energy:   12242
  Edisp (eV):   -0.63986
    FORVDW:  cpu time    0.0200: real time    0.0217

  FORCE on cell =-STRESS in cart. coord.  units (eV):
  Direction    XX          YY          ZZ          XY          YZ          ZX
  --------------------------------------------------------------------------------------
  Alpha Z     3.23807     3.23807     3.23807
  Ewald    4289.49376  3793.29602  -911.31177  1304.62618  -696.80926   549.32047
  Hartree  4906.03003  4318.05161   765.91802  1111.11920  -488.08280   312.72964
  E(xc)    -311.92630  -311.41612  -316.02750     0.57865    -0.98850     1.17885
  Local  -10004.54596 -8880.07022  -765.86480 -2397.91497  1156.79987  -828.87333
  n-local  -175.51847  -169.81573  -178.54243     0.66964    -0.08399     0.42084
  augment    24.17116    21.40371    28.79640    -0.98952     0.91502    -1.12613
  Kinetic  1267.79941  1224.25028  1372.24597   -17.95698    28.12031   -33.71428
  Fock        0.00000     0.00000     0.00000     0.00000     0.00000     0.00000
  vdW        -0.13165    -0.08000     0.05814    -0.09794     0.03548     0.14064
  -------------------------------------------------------------------------------------
  Total      -1.38994    -1.14239    -1.48990     0.03426    -0.09385     0.07668
  in kB      -0.27837    -0.22879    -0.29838     0.00686    -0.01880     0.01536
  external pressure =       -0.27 kB  Pullay stress =        0.00 kB


 VOLUME and BASIS-vectors are now :
 -----------------------------------------------------------------------------
  energy-cutoff  :      450.00
  volume of cell :     8000.00
      direct lattice vectors                 reciprocal lattice vectors
    20.000000000  0.000000000  0.000000000     0.050000000  0.000000000  0.000000000
     0.000000000 20.000000000  0.000000000     0.000000000  0.050000000  0.000000000
     0.000000000  0.000000000 20.000000000     0.000000000  0.000000000  0.050000000

  length of vectors
    20.000000000 20.000000000 20.000000000     0.050000000  0.050000000  0.050000000


 FORCES acting on ions
    electron-ion (+dipol)            ewald-force                    non-local-force                 convergence-correction
 -----------------------------------------------------------------------------------------------
   0.593E+01 0.364E+02 -.161E+02   -.448E+01 -.297E+02 0.148E+02   -.147E+01 -.664E+01 0.132E+01   -.505E-04 0.199E-04 -.315E-04
   -.111E+03 0.772E+02 -.818E+02   0.113E+03 -.761E+02 0.822E+02   -.136E+01 -.106E+01 -.422E+00   -.923E-04 0.126E-03 -.755E-04
   -.801E+01 -.354E+02 -.271E+02   0.806E+01 0.368E+02 0.270E+02   -.664E-01 -.142E+01 0.105E+00   -.108E-03 0.522E-04 -.408E-04
   0.946E+02 -.186E+03 0.700E+02   -.944E+02 0.188E+03 -.704E+02   -.214E+00 -.195E+01 0.427E+00   0.634E-05 -.411E-04 0.369E-04
   0.182E+03 -.141E+03 0.940E+02   -.182E+03 0.143E+03 -.946E+02   0.518E+00 -.177E+01 0.619E+00   0.360E-04 0.231E-04 0.390E-04
   0.107E+03 -.212E+02 0.381E+02   -.102E+03 0.255E+02 -.377E+02   -.477E+01 -.426E+01 -.408E+00   -.106E-04 0.692E-04 0.702E-05
   -.116E+03 0.214E+03 -.958E+02   0.121E+03 -.218E+03 0.983E+02   -.523E+01 0.357E+01 -.250E+01   -.511E-04 -.176E-04 -.857E-04
   -.532E+02 0.160E+02 -.958E+02   0.541E+02 -.208E+02 0.964E+02   -.810E+00 0.476E+01 -.594E+00   -.185E-03 0.138E-03 -.378E-04
   -.884E+02 0.844E+02 0.130E+03   0.871E+02 -.840E+02 -.130E+03   0.141E+01 -.394E+00 0.222E+00   -.166E-03 -.197E-04 -.254E-04
   -.203E+03 0.896E+02 0.125E+02   0.203E+03 -.959E+02 -.128E+02   0.350E+00 0.624E+01 0.301E+00   0.295E-04 0.928E-04 0.241E-04
   -.668E+02 0.413E+02 -.421E+02   0.713E+02 -.439E+02 0.444E+02   -.450E+01 0.254E+01 -.233E+01   -.111E-04 0.144E-04 -.146E-04
   0.260E+02 -.865E+02 0.289E+02   -.256E+02 0.922E+02 -.301E+02   -.440E+00 -.571E+01 0.125E+01   -.116E-05 -.587E-05 0.107E-04
   0.751E+02 -.503E+02 0.380E+02   -.798E+02 0.529E+02 -.403E+02   0.462E+01 -.259E+01 0.224E+01   -.450E-05 0.947E-05 0.850E-05
   0.430E+02 0.106E+03 -.130E+02   -.419E+02 -.114E+03 0.153E+02   -.106E+01 0.788E+01 -.237E+01   0.120E-04 0.365E-04 0.129E-05
   -.314E+02 0.143E+02 -.797E+02   0.331E+02 -.123E+02 0.846E+02   -.164E+01 -.209E+01 -.493E+01   -.401E-05 -.170E-05 -.165E-05
   0.813E+01 0.898E+02 -.202E+02   -.988E+01 -.952E+02 0.209E+02   0.177E+01 0.545E+01 -.733E+00   0.250E-05 -.245E-04 -.152E-04
   -.660E+02 0.422E+02 0.316E+02   0.703E+02 -.422E+02 -.352E+02   -.430E+01 -.885E-01 0.358E+01   0.671E-05 -.156E-04 -.231E-04
   -.342E+02 0.144E+02 -.918E+02   0.359E+02 -.158E+02 0.967E+02   -.180E+01 0.138E+01 -.489E+01   -.186E-04 0.884E-05 -.223E-05
   -.310E+02 0.772E+02 0.263E+02   0.311E+02 -.826E+02 -.267E+02   -.594E-01 0.547E+01 0.367E+00   -.180E-04 -.139E-04 -.379E-05
   -.609E+02 -.905E+02 -.181E+01   0.681E+02 0.942E+02 0.694E+00   -.721E+01 -.367E+01 0.112E+01   -.703E-04 -.202E-04 0.521E-05
   -.562E+02 0.317E+02 -.648E+02   0.576E+02 -.336E+02 0.697E+02   -.140E+01 0.193E+01 -.499E+01   0.199E-04 -.127E-04 0.401E-04
   -.740E+02 0.307E+02 0.498E+02   0.777E+02 -.326E+02 -.535E+02   -.369E+01 0.191E+01 0.373E+01   0.341E-04 -.152E-04 -.165E-04
   -.106E+03 -.578E+02 -.311E+02   0.114E+03 0.608E+02 0.339E+02   -.731E+01 -.296E+01 -.278E+01   -.451E-04 -.106E-04 -.935E-05
[...]
  n-local  -175.51466  -169.80115  -178.54051     0.67631    -0.11503     0.43444
  augment    24.20574    21.40340    28.74877    -0.99767     0.92263    -1.17520
  Kinetic  1268.38490  1224.25288  1371.65886   -18.04114    28.23236   -34.44391
  Fock        0.00000     0.00000     0.00000     0.00000     0.00000     0.00000
  vdW        -0.13819    -0.08111     0.05750    -0.09918     0.03578     0.14216
  -------------------------------------------------------------------------------------
  Total      -1.35885    -1.18866    -1.45415     0.04370    -0.04246     0.07010
  in kB      -0.27214    -0.23806    -0.29123     0.00875    -0.00850     0.01404
  external pressure =       -0.27 kB  Pullay stress =        0.00 kB



--------------------------------------------------------------------------------------------------------



  FREE ENERGIE OF THE ION-ELECTRON SYSTEM (eV)
  ---------------------------------------------------
  free  energy   TOTEN  =      -168.67419106 eV

  energy  without entropy=     -168.67419106  energy(sigma->0) =     -168.67419106
 
 d Force = 0.9423305E-04[ 0.200E-04, 0.168E-03]  d Energy = 0.8738126E-04 0.685E-05
 d Force = 0.6302352E+00[ 0.633E+00, 0.628E+00]  d Ewald  = 0.6302350E+00 0.174E-06


--------------------------------------------------------------------------------------------------------


    POTLOK:  cpu time    1.3248: real time    1.3291


--------------------------------------------------------------------------------------------------------




--------------------------------------------------------------------------------------------------------


    WAVPRE:  cpu time    0.5109: real time    0.5143
    FEWALD:  cpu time    0.0010: real time    0.0010
    ORTHCH:  cpu time    0.4989: real time    0.5002
     LOOP+:  cpu time   37.7753: real time   37.9096


--------------------------------------- Iteration     18(   1)  ---------------------------------------


    POTLOK:  cpu time    1.3368: real time    1.3414
    SETDIJ:  cpu time    0.0060: real time    0.0066
     EDDAV:  cpu time    5.1472: real time    5.1645
       DOS:  cpu time    0.0000: real time    0.0002
    CHARGE:  cpu time    0.4779: real time    0.4799
    MIXING:  cpu time    0.0350: real time    0.0347
    --------------------------------------------
      LOOP:  cpu time    7.0029: real time    7.0273

 eigenvalue-minimisations  :   144
 total energy-change (2. order) :-0.4657307E-04  (-0.1378946E-02)
 number of electron      78.0000026 magnetization 
 augmentation part        3.8290264 magnetization 

  free energy =  -0.168034371775E+03  energy without entropy=  -0.168034371775E+03


--------------------------------------------------------------------------------------------------------




--------------------------------------- Iteration     18(   2)  ---------------------------------------


    POTLOK:  cpu time    1.3358: real time    1.3399
    SETDIJ:  cpu time    0.0060: real time    0.0064
    EDDIAG:  cpu time    0.9109: real time    0.9137
  RMM-DIIS:  cpu time    3.1845: real time    3.1943
    ORTHCH:  cpu time    0.1650: real time    0.1655
       DOS:  cpu time    0.0020: real time    0.0017
    CHARGE:  cpu time    0.4699: real time    0.4715
    MIXING:  cpu time    0.0380: real time    0.0378
    --------------------------------------------
      LOOP:  cpu time    6.1121: real time    6.1308

 eigenvalue-minimisations  :   120
 total energy-change (2. order) :-0.1771159E-04  (-0.3011036E-04)
 number of electron      78.0000026 magnetization 
 augmentation part        3.8291141 magnetization 

 eigenvalues of (default mixing * dielectric matrix)
  average eigenvalue GAMMA=   1.0340
  1.0340

  free energy =  -0.168034389486E+03  energy without entropy=  -0.168034389486E+03


--------------------------------------------------------------------------------------------------------




--------------------------------------- Iteration     18(   3)  ---------------------------------------


    POTLOK:  cpu time    1.3328: real time    1.3382
    SETDIJ:  cpu time    0.0060: real time    0.0060
    EDDIAG:  cpu time    0.9159: real time    0.9186
  RMM-DIIS:  cpu time    2.3346: real time    2.3419
    ORTHCH:  cpu time    0.1650: real time    0.1654
       DOS:  cpu time    0.0000: real time    0.0003
    CHARGE:  cpu time    0.4699: real time    0.4715
    MIXING:  cpu time    0.0390: real time    0.0390
    --------------------------------------------
      LOOP:  cpu time    5.2632: real time    5.2808

 eigenvalue-minimisations  :    82
 total energy-change (2. order) :-0.3728687E-05  (-0.7836290E-06)
 number of electron      78.0000026 magnetization 
 augmentation part        3.8291063 magnetization 

 eigenvalues of (default mixing * dielectric matrix)
  average eigenvalue GAMMA=   1.7542
  1.0368  2.4716

  free energy =  -0.168034393215E+03  energy without entropy=  -0.168034393215E+03


--------------------------------------------------------------------------------------------------------




--------------------------------------- Iteration     18(   4)  ---------------------------------------


    POTLOK:  cpu time    1.3328: real time    1.3366
    SETDIJ:  cpu time    0.0060: real time    0.0062
    EDDIAG:  cpu time    0.9119: real time    0.9142
  RMM-DIIS:  cpu time    2.2727: real time    2.2823
    ORTHCH:  cpu time    0.1650: real time    0.1655
       DOS:  cpu time    0.0000: real time    0.0003
    CHARGE:  cpu time    0.4699: real time    0.4713
    MIXING:  cpu time    0.0410: real time    0.0414
    --------------------------------------------
      LOOP:  cpu time    5.2002: real time    5.2178

 eigenvalue-minimisations  :    81
 total energy-change (2. order) :-0.5047717E-05  (-0.5362019E-06)
 number of electron      78.0000026 magnetization 
 augmentation part        3.8290864 magnetization 

 eigenvalues of (default mixing * dielectric matrix)
  average eigenvalue GAMMA=   1.4808
  2.3480  1.0471  1.0471

  free energy =  -0.168034398263E+03  energy without entropy=  -0.168034398263E+03


--------------------------------------------------------------------------------------------------------




--------------------------------------- Iteration     18(   5)  ---------------------------------------


    POTLOK:  cpu time    1.3298: real time    1.3368
    SETDIJ:  cpu time    0.0070: real time    0.0066
    EDDIAG:  cpu time    0.9169: real time    0.9194
  RMM-DIIS:  cpu time    2.2177: real time    2.2243
    ORTHCH:  cpu time    0.1650: real time    0.1655
       DOS:  cpu time    0.0000: real time    0.0003
    --------------------------------------------
      LOOP:  cpu time    4.6353: real time    4.6528

 eigenvalue-minimisations  :    73
 total energy-change (2. order) :-0.7666213E-06  (-0.8231678E-07)
 number of electron      78.0000026 magnetization 
 augmentation part        3.8290864 magnetization 

  free energy =  -0.168034399029E+03  energy without entropy=  -0.168034399029E+03


--------------------------------------------------------------------------------------------------------




------------------------ aborting loop because EDIFF is reached ----------------------------------------


    CHARGE:  cpu time    0.4709: real time    0.4717
    FORLOC:  cpu time    0.2120: real time    0.2129
    FORNL :  cpu time    1.0068: real time    1.0103
    STRESS:  cpu time    3.0045: real time    3.0143
    FORCOR:  cpu time    1.3908: real time    1.3968
    FORHAR:  cpu time    0.5069: real time    0.5077
    MIXING:  cpu time    0.0400: real time    0.0407
    OFIELD:  cpu time    0.0000: real time    0.0000

  Number of pair interactions contributing to vdW energy:   12241
  Edisp (eV):   -0.63988
    FORVDW:  cpu time    0.0040: real time    0.0038

  FORCE on cell =-STRESS in cart. coord.  units (eV):
  Direction    XX          YY          ZZ          XY          YZ          ZX
  --------------------------------------------------------------------------------------
  Alpha Z     3.23807     3.23807     3.23807
  Ewald    4282.67251  3793.60713  -908.05055  1305.20324  -696.85271   550.24420
  Hartree  4901.69397  4318.19003   766.73794  1111.22530  -488.14326   311.49407
  E(xc)    -311.93829  -311.41097  -316.01166     0.58106    -0.98817     1.19057
  Local   -9994.00226 -8880.57982  -769.26484 -2398.49958  1156.88836  -827.79672
  n-local  -175.51119  -169.80119  -178.53916     0.67844    -0.11465     0.43364
  augment    24.20743    21.40375    28.74640    -0.99784     0.92166    -1.17674
  Kinetic  1268.39915  1224.25503  1371.61771   -18.04361    28.20743   -34.46645
  Fock        0.00000     0.00000     0.00000     0.00000     0.00000     0.00000
  vdW        -0.13848    -0.08125     0.05745    -0.09925     0.03590     0.14219
  -------------------------------------------------------------------------------------
  Total      -1.37908    -1.17920    -1.46864     0.04777    -0.04544     0.06474
  in kB      -0.27619    -0.23616    -0.29413     0.00957    -0.00910     0.01297
  external pressure =       -0.27 kB  Pullay stress =        0.00 kB



--------------------------------------------------------------------------------------------------------



  FREE ENERGIE OF THE ION-ELECTRON SYSTEM (eV)
  ---------------------------------------------------
  free  energy   TOTEN  =      -168.67427510 eV

  energy  without entropy=     -168.67427510  energy(sigma->0) =     -168.67427510
 
 d Force = 0.8039234E-04[ 0.635E-04, 0.973E-04]  d Energy = 0.8404290E-04-0.365E-05
 d Force = 0.2048145E+00[ 0.205E+00, 0.204E+00]  d Ewald  = 0.2048145E+00-0.528E-07


--------------------------------------------------------------------------------------------------------


    POTLOK:  cpu time    1.3258: real time    1.3300


--------------------------------------------------------------------------------------------------------


 Conjugate gradient step on ions:
 trial-energy change:   -0.000084  1 .order   -0.000080   -0.000097   -0.000063
  (g-gl).g = 0.933E-04      g.g   = 0.111E-03  gl.gl    = 0.141E-03
 g(Force)  = 0.111E-03   g(Stress)= 0.000E+00 ortho     = 0.131E-04
 gamma     =   0.66238
 trial     =   0.81164
 opt step  =   2.33438  (harmonic =   2.33438) maximal distance =0.00265226
 next E    =  -168.674331   (d E  =  -0.00014)


--------------------------------------------------------------------------------------------------------


    WAVPRE:  cpu time    0.5129: real time    0.5158
    FEWALD:  cpu time    0.0010: real time    0.0012
    ORTHCH:  cpu time    0.4989: real time    0.5003
     LOOP+:  cpu time   37.2013: real time   37.3302


--------------------------------------- Iteration     19(   1)  ---------------------------------------


    POTLOK:  cpu time    1.3338: real time    1.3377
    SETDIJ:  cpu time    0.0060: real time    0.0058
     EDDAV:  cpu time    4.8133: real time    4.8286
       DOS:  cpu time    0.0010: real time    0.0002
    CHARGE:  cpu time    0.4789: real time    0.4826
    MIXING:  cpu time    0.0350: real time    0.0345
    --------------------------------------------
      LOOP:  cpu time    6.6680: real time    6.6894

 eigenvalue-minimisations  :   132
 total energy-change (2. order) : 0.4439956E-04  (-0.4843702E-02)
 number of electron      78.0000029 magnetization 
 augmentation part        3.8288745 magnetization 

  free energy =  -0.168034353863E+03  energy without entropy=  -0.168034353863E+03


--------------------------------------------------------------------------------------------------------




--------------------------------------- Iteration     19(   2)  ---------------------------------------


    POTLOK:  cpu time    1.3258: real time    1.3306
    SETDIJ:  cpu time    0.0070: real time    0.0060
    EDDIAG:  cpu time    0.9109: real time    0.9145
  RMM-DIIS:  cpu time    3.1775: real time    3.1864
    ORTHCH:  cpu time    0.1650: real time    0.1657
       DOS:  cpu time    0.0000: real time    0.0002
    CHARGE:  cpu time    0.4709: real time    0.4724
    MIXING:  cpu time    0.0370: real time    0.0364
    --------------------------------------------
      LOOP:  cpu time    6.0941: real time    6.1123

 eigenvalue-minimisations  :   120
 total energy-change (2. order) :-0.6195898E-04  (-0.1044890E-03)
 number of electron      78.0000029 magnetization 
 augmentation part        3.8290450 magnetization 

 eigenvalues of (default mixing * dielectric matrix)
  average eigenvalue GAMMA=   1.0395
  1.0395

  free energy =  -0.168034415822E+03  energy without entropy=  -0.168034415822E+03


--------------------------------------------------------------------------------------------------------




--------------------------------------- Iteration     19(   3)  ---------------------------------------


    POTLOK:  cpu time    1.3238: real time    1.3295
    SETDIJ:  cpu time    0.0060: real time    0.0060
    EDDIAG:  cpu time    0.9129: real time    0.9165
  RMM-DIIS:  cpu time    2.5486: real time    2.5584
    ORTHCH:  cpu time    0.1680: real time    0.1691
       DOS:  cpu time    0.0010: real time    0.0004
    CHARGE:  cpu time    0.4719: real time    0.4732
    MIXING:  cpu time    0.0380: real time    0.0391
    --------------------------------------------
      LOOP:  cpu time    5.4712: real time    5.4921

 eigenvalue-minimisations  :    88
 total energy-change (2. order) :-0.1060895E-04  (-0.3001913E-05)
 number of electron      78.0000029 magnetization 
 augmentation part        3.8290324 magnetization 

 eigenvalues of (default mixing * dielectric matrix)
  average eigenvalue GAMMA=   1.7529
  1.0373  2.4686

  free energy =  -0.168034426431E+03  energy without entropy=  -0.168034426431E+03


--------------------------------------------------------------------------------------------------------




--------------------------------------- Iteration     19(   4)  ---------------------------------------


    POTLOK:  cpu time    1.3258: real time    1.3294
    SETDIJ:  cpu time    0.0060: real time    0.0060
    EDDIAG:  cpu time    0.9139: real time    0.9168
  RMM-DIIS:  cpu time    2.3836: real time    2.3905
    ORTHCH:  cpu time    0.1640: real time    0.1648
       DOS:  cpu time    0.0010: real time    0.0009
    CHARGE:  cpu time    0.4699: real time    0.4712
    MIXING:  cpu time    0.0410: real time    0.0415
    --------------------------------------------
      LOOP:  cpu time    5.3052: real time    5.3210

 eigenvalue-minimisations  :    84
 total energy-change (2. order) :-0.1296861E-04  (-0.1716762E-05)
 number of electron      78.0000029 magnetization 
 augmentation part        3.8289949 magnetization 

 eigenvalues of (default mixing * dielectric matrix)
  average eigenvalue GAMMA=   1.4838
  2.3435  1.0540  1.0540

  free energy =  -0.168034439399E+03  energy without entropy=  -0.168034439399E+03


--------------------------------------------------------------------------------------------------------




--------------------------------------- Iteration     19(   5)  ---------------------------------------


    POTLOK:  cpu time    1.3258: real time    1.3293
    SETDIJ:  cpu time    0.0060: real time    0.0066
    EDDIAG:  cpu time    0.9169: real time    0.9195
  RMM-DIIS:  cpu time    2.3196: real time    2.3297
    ORTHCH:  cpu time    0.1660: real time    0.1656
       DOS:  cpu time    0.0000: real time    0.0002
    --------------------------------------------
      LOOP:  cpu time    4.7333: real time    4.7509

 eigenvalue-minimisations  :    79
 total energy-change (2. order) :-0.6847895E-06  (-0.2082365E-06)
 number of electron      78.0000029 magnetization 
 augmentation part        3.8289949 magnetization 

  free energy =  -0.168034440084E+03  energy without entropy=  -0.168034440084E+03


--------------------------------------------------------------------------------------------------------




------------------------ aborting loop because EDIFF is reached ----------------------------------------


    CHARGE:  cpu time    0.4709: real time    0.4720
    FORLOC:  cpu time    0.2120: real time    0.2128
    FORNL :  cpu time    1.0158: real time    1.0187
    STRESS:  cpu time    3.0225: real time    3.0311
    FORCOR:  cpu time    1.3958: real time    1.3997
    FORHAR:  cpu time    0.5069: real time    0.5088
    MIXING:  cpu time    0.0410: real time    0.0407
    OFIELD:  cpu time    0.0000: real time    0.0000

  Number of pair interactions contributing to vdW energy:   12241
  Edisp (eV):   -0.63990
    FORVDW:  cpu time    0.0040: real time    0.0038

  FORCE on cell =-STRESS in cart. coord.  units (eV):
  Direction    XX          YY          ZZ          XY          YZ          ZX
  --------------------------------------------------------------------------------------
  Alpha Z     3.23807     3.23807     3.23807
  Ewald    4281.87009  3793.51385  -907.54131  1305.26752  -696.29807   549.99203
  Hartree  4901.15792  4318.01795   767.02426  1111.24628  -487.82572   311.18493
  E(xc)    -311.93675  -311.40788  -316.00759     0.58087    -0.98712     1.19119
  Local   -9992.74103 -8880.30441  -770.01120 -2398.57633  1156.05749  -827.19949
  n-local  -175.50242  -169.80379  -178.52672     0.68096    -0.11435     0.43464
  augment    24.21073    21.40437    28.74184    -0.99813     0.91976    -1.17973
  Kinetic  1268.42629  1224.25877  1371.54053   -18.04806    28.15958   -34.50919
  Fock        0.00000     0.00000     0.00000     0.00000     0.00000     0.00000
  vdW        -0.13902    -0.08152     0.05734    -0.09937     0.03612     0.14224
  -------------------------------------------------------------------------------------
  Total      -1.41613    -1.16459    -1.48479     0.05372    -0.05230     0.05664
  in kB      -0.28361    -0.23323    -0.29736     0.01076    -0.01047     0.01134
  external pressure =       -0.27 kB  Pullay stress =        0.00 kB



--------------------------------------------------------------------------------------------------------



  FREE ENERGIE OF THE ION-ELECTRON SYSTEM (eV)
  ---------------------------------------------------
  free  energy   TOTEN  =      -168.67433720 eV

  energy  without entropy=     -168.67433720  energy(sigma->0) =     -168.67433720
 
 d Force = 0.6359529E-04[ 0.810E-05, 0.119E-03]  d Energy = 0.6210338E-04 0.149E-05
 d Force = 0.3864769E+00[ 0.388E+00, 0.385E+00]  d Ewald  = 0.3864771E+00-0.225E-06


--------------------------------------------------------------------------------------------------------


    POTLOK:  cpu time    1.3158: real time    1.3207


--------------------------------------------------------------------------------------------------------




--------------------------------------------------------------------------------------------------------


  
 reached required accuracy - stopping structural energy minimisation
     LOOP+:  cpu time   36.2685: real time   36.3903
    4ORBIT:  cpu time    0.0000: real time    0.0000

 total amount of memory used by VASP MPI-rank0   184690. kBytes
=======================================================================

   base      :      30000. kBytes
   nonlr-proj:       2477. kBytes
   fftplans  :      33533. kBytes
   grid      :     104696. kBytes
   one-center:         86. kBytes
   wavefun   :      13898. kBytes
 
  
  
 General timing and accounting informations for this job:
 ========================================================
  
                  Total CPU time used (sec):      828.317
                            User time (sec):      795.965
                          System time (sec):       32.352
                         Elapsed time (sec):      830.971
  
                   Maximum memory used (kb):      551080.
                   Average memory used (kb):           0.
  
                          Minor page faults:      1596208
                          Major page faults:            0
                 Voluntary context switches:         1846
