 vasp.5.4.4.18Apr17-6-g9f103f2a35 (build Jun 30 2017 19:19:18) complex          
  
 executed on         MareNostrum4 date 2022.06.19  18:43:20
 running on   48 total cores
 distrk:  each k-point on   48 cores,    1 groups
 distr:  one band on NCORES_PER_BAND=   4 cores,   12 groups


--------------------------------------------------------------------------------------------------------


 INCAR:
 POTCAR:    PAW_PBE Au 04Oct2007                  
 POTCAR:    PAW_PBE O 08Apr2002                   
 POTCAR:    PAW_PBE C 08Apr2002                   
 POTCAR:    PAW_PBE N 08Apr2002                   
 POTCAR:    PAW_PBE H 15Jun2001                   
 POTCAR:    PAW_PBE Au 04Oct2007                  
  local pseudopotential read in
  partial core-charges read in
  partial kinetic energy density read in
  atomic valenz-charges read in
  non local Contribution for L=           2  read in
    real space projection operators read in
  non local Contribution for L=           2  read in
    real space projection operators read in
  non local Contribution for L=           0  read in
    real space projection operators read in
  non local Contribution for L=           0  read in
    real space projection operators read in
  non local Contribution for L=           1  read in
    real space projection operators read in
  non local Contribution for L=           1  read in
    real space projection operators read in
    PAW grid and wavefunctions read in
 
   number of l-projection  operators is LMAX  =           6
   number of lm-projection operators is LMMAX =          18
 
 POTCAR:    PAW_PBE O 08Apr2002                   
  local pseudopotential read in
  partial core-charges read in
  partial kinetic energy density read in
  kinetic energy density of atom read in
  atomic valenz-charges read in
  non local Contribution for L=           0  read in
    real space projection operators read in
  non local Contribution for L=           0  read in
    real space projection operators read in
  non local Contribution for L=           1  read in
    real space projection operators read in
  non local Contribution for L=           1  read in
    real space projection operators read in
    PAW grid and wavefunctions read in
 
   number of l-projection  operators is LMAX  =           4
   number of lm-projection operators is LMMAX =           8
 
 POTCAR:    PAW_PBE C 08Apr2002                   
  local pseudopotential read in
  partial core-charges read in
  partial kinetic energy density read in
  atomic valenz-charges read in
  non local Contribution for L=           0  read in
    real space projection operators read in
  non local Contribution for L=           0  read in
    real space projection operators read in
  non local Contribution for L=           1  read in
    real space projection operators read in
  non local Contribution for L=           1  read in
    real space projection operators read in
    PAW grid and wavefunctions read in
 
   number of l-projection  operators is LMAX  =           4
   number of lm-projection operators is LMMAX =           8
 
 POTCAR:    PAW_PBE N 08Apr2002                   
  local pseudopotential read in
  partial core-charges read in
  partial kinetic energy density read in
  atomic valenz-charges read in
  non local Contribution for L=           0  read in
    real space projection operators read in
  non local Contribution for L=           0  read in
    real space projection operators read in
  non local Contribution for L=           1  read in
    real space projection operators read in
  non local Contribution for L=           1  read in
    real space projection operators read in
    PAW grid and wavefunctions read in
 
   number of l-projection  operators is LMAX  =           4
   number of lm-projection operators is LMMAX =           8
 
 POTCAR:    PAW_PBE H 15Jun2001                   
  local pseudopotential read in
  atomic valenz-charges read in
  non local Contribution for L=           0  read in
    real space projection operators read in
  non local Contribution for L=           0  read in
    real space projection operators read in
  non local Contribution for L=           1  read in
    real space projection operators read in
    PAW grid and wavefunctions read in
 
   number of l-projection  operators is LMAX  =           3
   number of lm-projection operators is LMMAX =           5
 
 Optimization of the real space projectors (new method)

 maximal supplied QI-value         = 15.12
 optimisation between [QCUT,QGAM] = [ 10.73, 21.62] = [ 32.26,130.87] Ry 
 Optimized for a Real-space Cutoff    1.42 Angstroem

   l    n(q)    QCUT    max X(q) W(low)/X(q) W(high)/X(q)  e(spline) 
   2      8    10.734    60.898    0.15E-03    0.34E-03    0.26E-06
   2      8    10.734    58.894    0.16E-03    0.35E-03    0.27E-06
   0      9    10.734   109.617    0.92E-04    0.16E-03    0.12E-06
   0      9    10.734    75.026    0.89E-04    0.15E-03    0.11E-06
   1      9    10.734    16.344    0.25E-03    0.88E-04    0.14E-06
   1      9    10.734    10.160    0.20E-03    0.77E-04    0.11E-06
 Optimization of the real space projectors (new method)

 maximal supplied QI-value         = 24.76
 optimisation between [QCUT,QGAM] = [ 10.64, 21.54] = [ 31.73,129.89] Ry 
 Optimized for a Real-space Cutoff    1.23 Angstroem

   l    n(q)    QCUT    max X(q) W(low)/X(q) W(high)/X(q)  e(spline) 
   0      8    10.645    20.381    0.38E-03    0.60E-03    0.15E-06
   0      8    10.645    15.268    0.40E-03    0.65E-03    0.17E-06
   1      7    10.645     5.964    0.30E-03    0.63E-03    0.18E-06
   1      7    10.645     5.382    0.24E-03    0.53E-03    0.16E-06
 Optimization of the real space projectors (new method)

 maximal supplied QI-value         = 25.13
 optimisation between [QCUT,QGAM] = [ 10.81, 21.61] = [ 32.71,130.83] Ry 
 Optimized for a Real-space Cutoff    1.23 Angstroem

   l    n(q)    QCUT    max X(q) W(low)/X(q) W(high)/X(q)  e(spline) 
   0      8    10.807   115.676    0.36E-03    0.72E-03    0.24E-06
   0      8    10.807    87.132    0.35E-03    0.71E-03    0.24E-06
   1      7    10.807     4.429    0.19E-03    0.39E-03    0.11E-06
   1      7    10.807     2.733    0.14E-03    0.28E-03    0.13E-06
 Optimization of the real space projectors (new method)

 maximal supplied QI-value         = 25.13
 optimisation between [QCUT,QGAM] = [ 10.81, 21.61] = [ 32.71,130.83] Ry 
 Optimized for a Real-space Cutoff    1.23 Angstroem

   l    n(q)    QCUT    max X(q) W(low)/X(q) W(high)/X(q)  e(spline) 
   0      8    10.807    79.467    0.34E-03    0.68E-03    0.21E-06
   0      8    10.807    66.151    0.34E-03    0.67E-03    0.21E-06
   1      7    10.807    14.030    0.45E-03    0.13E-02    0.11E-05
   1      7    10.807     9.831    0.48E-03    0.13E-02    0.11E-05
 Optimization of the real space projectors (new method)

 maximal supplied QI-value         = 34.20
 optimisation between [QCUT,QGAM] = [ 10.60, 21.55] = [ 31.48,130.03] Ry 
 Optimized for a Real-space Cutoff    1.23 Angstroem

   l    n(q)    QCUT    max X(q) W(low)/X(q) W(high)/X(q)  e(spline) 
   0      8    10.603    19.460    0.37E-03    0.59E-03    0.23E-06
   0      8    10.603    12.209    0.35E-03    0.56E-03    0.22E-06
   1      7    10.603     4.655    0.70E-04    0.28E-03    0.29E-06
  PAW_PBE Au 04Oct2007                  :
 energy of atom  1       EATOM= -926.0867
 kinetic energy error for atom=    0.0057 (will be added to EATOM!!)
  PAW_PBE O 08Apr2002                   :
 energy of atom  2       EATOM= -432.3788
 kinetic energy error for atom=    0.0389 (will be added to EATOM!!)
  PAW_PBE C 08Apr2002                   :
 energy of atom  3       EATOM= -147.1560
 kinetic energy error for atom=    0.0116 (will be added to EATOM!!)
  PAW_PBE N 08Apr2002                   :
 energy of atom  4       EATOM= -264.5486
 kinetic energy error for atom=    0.0253 (will be added to EATOM!!)
  PAW_PBE H 15Jun2001                   :
 energy of atom  5       EATOM=  -12.4884
 kinetic energy error for atom=    0.0045 (will be added to EATOM!!)
 
 
 POSCAR: Au  O  C  N  H                          
  positions in direct lattice
  velocities in cartesian coordinates
 exchange correlation table for  LEXCH =        8
   RHO(1)=    0.500       N(1)  =     2000
   RHO(2)=  100.500       N(2)  =     4000
 


--------------------------------------------------------------------------------------------------------


 ion  position               nearest neighbor table
   1  0.000  0.000  0.000- 102 2.94  57 2.94  13 2.94 101 2.94   2 2.94 156 2.94  56 2.94  68 2.94
                           114 2.94
   2  0.083  0.083  0.000-   3 2.94   7 2.94   4 2.94 102 2.94  14 2.94  15 2.94   1 2.94  57 2.94
                            13 2.94
   3  0.167  0.167  0.000-   2 2.94   4 2.94   7 2.94  15 2.94   5 2.94  19 2.94  10 2.94   8 2.94
                            17 2.94
   4  0.250  0.000  0.000-   3 2.94   2 2.94  15 2.94  71 2.94  57 2.94  60 2.94   5 2.94  59 2.94
                            16 2.94
   5  0.333  0.083  0.000-  10 2.94  17 2.94   3 2.94   6 2.94  18 2.94  16 2.94   4 2.94  97 2.94
                            60 2.94
   6  0.417  0.167  0.000-  98 2.94  97 2.94 103 2.94   5 2.94  18 2.94 110 2.94  10 2.94  11 2.94
                            22 2.94
   7  0.000  0.250  0.000-   2 2.94   3 2.94   8 2.94  19 2.94 102 2.94 107 2.94 108 2.94  14 2.94
                           120 2.94
   8  0.083  0.333  0.000-  49 2.94   7 2.94  20 2.94  19 2.94  10 2.94   9 2.94 108 2.94   3 2.94
                            21 2.94
   9  0.167  0.417  0.000-  50 2.94  61 2.94  52 2.94  49 2.94  23 2.94  21 2.94   8 2.94  11 2.94
                            10 2.94
  10  0.250  0.250  0.000-   5 2.94  22 2.94  17 2.94  21 2.94   3 2.94   6 2.94   8 2.94  11 2.94
                             9 2.94
  11  0.333  0.333  0.000-  52 2.94  12 2.94 103 2.94  24 2.94   9 2.94  10 2.94   6 2.94  23 2.94
                            22 2.94
  12  0.417  0.417  0.000-  52 2.94  53 2.94  11 2.94  64 2.94 145 2.94  24 2.94 104 2.94 103 2.94
                           116 2.94
  13  0.083  0.000  0.120-  81 2.90  26 2.91  25 2.91  14 2.94   1 2.94  57 2.94  68 2.94 114 2.94
                            15 2.94  71 2.94  69 2.94   2 2.94
  14  0.000  0.167  0.120-  25 2.90  27 2.91 131 2.91  13 2.94 114 2.94  15 2.94   2 2.94 102 2.94
                           118 2.94  19 2.94 120 2.94   7 2.94
  15  0.167  0.083  0.120-  28 2.91  27 2.91  26 2.91  19 2.94   3 2.94  14 2.94  17 2.94   2 2.94
                             4 2.94  16 2.94  13 2.94  71 2.94
  16  0.333  0.000  0.120-  84 2.91  29 2.91  28 2.91  17 2.94  18 2.94 164 2.94   5 2.94  60 2.94
                            15 2.94  71 2.94  72 2.94   4 2.94
  17  0.250  0.167  0.120-  30 2.89  28 2.91  32 2.91  18 2.94  16 2.94  22 2.94   5 2.94  15 2.94
                            10 2.94  19 2.94  21 2.94   3 2.94
  18  0.417  0.083  0.120- 121 2.90  30 2.90  29 2.91  17 2.94  22 2.94  16 2.94 110 2.94   6 2.94
                             5 2.94 109 2.94 164 2.94  97 2.94
  19  0.083  0.250  0.120-  32 2.90  27 2.91  31 2.91  15 2.94   7 2.94   3 2.94   8 2.94  17 2.94
                            14 2.94 120 2.94  21 2.94  20 2.94
  20  1.000  0.417  0.120-  33 2.90  31 2.91 173 2.91 162 2.94  49 2.94  61 2.94 160 2.94   8 2.94
                           120 2.94  21 2.94  19 2.94 108 2.94
  21  0.167  0.333  0.120-  34 2.88  32 2.91  33 2.91  61 2.94  22 2.94  23 2.94   9 2.94  10 2.94
                            20 2.94  19 2.94  17 2.94   8 2.94
  22  0.333  0.250  0.120-  35 2.89  34 2.90  30 2.90  18 2.94  21 2.94  17 2.94  10 2.94 110 2.94
                            24 2.94  23 2.94   6 2.94  11 2.94
  23  0.250  0.417  0.120-  36 2.90  34 2.90  74 2.91  61 2.94  63 2.94  21 2.94  64 2.94  52 2.94
                             9 2.94  24 2.94  22 2.94  11 2.94
  24  0.417  0.333  0.120-  35 2.90 127 2.91  36 2.91  64 2.94  11 2.94  12 2.94 103 2.94 115 2.94
                           116 2.94  23 2.94  22 2.94 110 2.94
  25  1.000  0.084  0.238-  14 2.90 114 2.90  13 2.91 126 2.94  27 2.94 131 2.94  81 2.94 125 2.94
                            37 2.94 138 2.94  26 2.94  38 2.95
  26  0.167  1.000  0.238-  71 2.91  13 2.91  15 2.91  82 2.93  84 2.94  28 2.94  81 2.94  93 2.94
                            27 2.94  38 2.94  25 2.94  40 2.95
  27  0.083  0.167  0.238-  14 2.91  19 2.91  15 2.91  32 2.93  28 2.94  25 2.94 131 2.94  26 2.94
                            31 2.94  38 2.94  43 2.94  39 2.95
  28  0.250  0.083  0.238-  15 2.91  17 2.91  16 2.91  30 2.93  84 2.93  27 2.94  26 2.94  32 2.94
                            29 2.94  41 2.94  39 2.95  40 2.95
  29  0.417  0.000  0.238-  18 2.91  16 2.91 164 2.91 175 2.93 121 2.94  84 2.94  30 2.94 177 2.94
                            28 2.94  96 2.94  41 2.95 133 2.95
  30  0.333  0.167  0.238-  17 2.89  22 2.90  18 2.90  42 2.93  28 2.93  32 2.94  29 2.94  35 2.94
                            34 2.94  41 2.95 121 2.95  46 2.95
  31  1.000  0.333  0.238-  20 2.91 120 2.91  19 2.91  33 2.93  32 2.93 132 2.94 131 2.94 173 2.94
                            27 2.94 144 2.94  43 2.94  44 2.95
  32  0.166  0.250  0.238-  19 2.90  21 2.91  17 2.91  34 2.93  27 2.93  31 2.93  30 2.94  28 2.94
                            33 2.94  44 2.95  46 2.95  39 2.95
  33  0.083  0.417  0.238-  20 2.90  61 2.91  21 2.91  34 2.92 173 2.93  31 2.93  74 2.93  73 2.94
                            32 2.94  45 2.94  85 2.95  44 2.95
  34  0.249  0.334  0.237-  21 2.88  47 2.90  23 2.90  22 2.90  33 2.92  32 2.93  74 2.94  30 2.94
                            46 2.96  35 2.96  36 2.96  45 2.96
  35  0.416  0.250  0.237-  22 2.89 110 2.90  24 2.90  47 2.91 139 2.93  30 2.94 121 2.94  42 2.94
                           123 2.94 127 2.94  34 2.96  36 2.96
  36  0.332  0.418  0.238-  64 2.89  23 2.90  47 2.90  24 2.91  48 2.92  76 2.93  77 2.93  74 2.94
                           127 2.95  88 2.95  34 2.96  35 2.96
  37  1.000  0.000  0.358-  92 2.93 138 2.93  38 2.94  93 2.94 137 2.94  25 2.94  81 2.94 125 2.94
                           192 2.94
  38  0.083  0.083  0.358-  93 2.93  40 2.94  39 2.94  37 2.94  43 2.94 138 2.94  26 2.94  27 2.94
                            25 2.95
  39  0.167  0.167  0.358-  41 2.94  40 2.94  38 2.94  43 2.94  46 2.94  44 2.94  28 2.95  27 2.95
                            32 2.95
  40  0.250  0.000  0.359-  41 2.93  93 2.93  38 2.94  39 2.94  95 2.94  96 2.94  28 2.95  84 2.95
                            26 2.95
  41  0.333  0.083  0.358-  42 2.92  40 2.93  39 2.94  96 2.94  46 2.94  28 2.94  29 2.95 133 2.95
                            30 2.95
  42  0.416  0.166  0.357-  41 2.92 133 2.93  30 2.93 121 2.93  46 2.94 134 2.94  35 2.94 139 2.94
                            47 2.96
  43  0.000  0.250  0.358-  39 2.94 138 2.94  44 2.94  38 2.94 143 2.94 144 2.94 131 2.94  27 2.94
                            31 2.94
  44  0.083  0.333  0.358-  46 2.93  45 2.93  43 2.94  39 2.94 144 2.94  85 2.94  31 2.95  32 2.95
                            33 2.95
  45  0.166  0.417  0.359-  47 2.93  85 2.93  44 2.93  88 2.94  86 2.94  46 2.94  33 2.94  74 2.95
                            34 2.96
  46  0.249  0.250  0.358-  47 2.93  44 2.93  39 2.94  42 2.94  41 2.94  45 2.94  32 2.95  30 2.95
                            34 2.96
  47  0.332  0.334  0.355-  34 2.90  36 2.90  35 2.91  45 2.93  46 2.93 139 2.95  42 2.96  48 2.97
                            88 2.97
  48  0.414  0.420  0.357-  77 2.91  36 2.92  89 2.92 127 2.94  88 2.95 181 2.96  47 2.97 139 2.99
                           140 3.00
  49  1.000  0.500  0.000-   8 2.94  20 2.94   9 2.94 108 2.94  50 2.94 149 2.94 150 2.94 162 2.94
                            61 2.94
  50  0.083  0.583  0.000-   9 2.94  63 2.94  61 2.94  62 2.94  51 2.94  52 2.94  49 2.94 150 2.94
                            55 2.94
  51  0.167  0.667  0.000-  56 2.94  53 2.94  58 2.94  65 2.94  50 2.94  55 2.94  52 2.94  63 2.94
                            67 2.94
  52  0.250  0.500  0.000-  12 2.94  11 2.94  53 2.94   9 2.94  23 2.94  64 2.94  50 2.94  51 2.94
                            63 2.94
  53  0.333  0.583  0.000-  12 2.94  52 2.94  51 2.94  64 2.94  65 2.94  54 2.94 145 2.94  58 2.94
                            66 2.94
  54  0.417  0.667  0.000-  59 2.94 158 2.94  66 2.94  70 2.94  53 2.94 146 2.94 151 2.94  58 2.94
                           145 2.94
  55  1.000  0.750  0.000- 156 2.94 155 2.94  56 2.94 168 2.94  67 2.94  62 2.94 150 2.94  51 2.94
                            50 2.94
  56  0.083  0.833  0.000-  58 2.94  51 2.94  57 2.94  55 2.94  67 2.94  69 2.94 156 2.94   1 2.94
                            68 2.94
  57  0.167  0.917  0.000-  58 2.94  56 2.94   1 2.94  69 2.94  13 2.94   4 2.94  59 2.94   2 2.94
                            71 2.94
  58  0.250  0.750  0.000-  56 2.94  57 2.94  51 2.94  69 2.94  59 2.94  65 2.94  54 2.94  53 2.94
                            70 2.94
  59  0.333  0.833  0.000-  54 2.94  70 2.94 151 2.94  58 2.94  72 2.94  71 2.94  60 2.94  57 2.94
                             4 2.94
  60  0.417  0.917  0.000- 151 2.94 164 2.94  16 2.94  59 2.94   4 2.94 152 2.94  97 2.94   5 2.94
                            72 2.94
  61  0.083  0.500  0.120-  74 2.89  33 2.91  73 2.91  23 2.94  21 2.94  63 2.94   9 2.94  20 2.94
                            50 2.94  62 2.94  49 2.94 162 2.94
  62  0.000  0.667  0.120-  75 2.90  73 2.91 179 2.91 168 2.94  63 2.94  67 2.94  50 2.94  55 2.94
                            61 2.94 150 2.94 162 2.94 166 2.94
  63  0.167  0.583  0.120-  76 2.90  74 2.90  75 2.91  23 2.94  61 2.94  62 2.94  50 2.94  65 2.94
                            64 2.94  67 2.94  51 2.94  52 2.94
  64  0.333  0.500  0.120-  36 2.89  77 2.89  76 2.91  24 2.94  12 2.94  23 2.94 116 2.94  52 2.94
                            53 2.94  66 2.94  63 2.94  65 2.94
  65  0.250  0.667  0.120-  76 2.89  78 2.90  80 2.91  69 2.94  51 2.94  53 2.94  58 2.94  66 2.94
                            67 2.94  63 2.94  70 2.94  64 2.94
  66  0.417  0.583  0.120-  77 2.89 169 2.90  78 2.91 116 2.94 158 2.94 157 2.94 145 2.94  54 2.94
                            65 2.94  64 2.94  70 2.94  53 2.94
  67  0.083  0.750  0.120-  80 2.90  75 2.90  79 2.91  68 2.94  62 2.94  69 2.94 168 2.94  56 2.94
                            55 2.94  65 2.94  63 2.94  51 2.94
  68  1.000  0.917  0.120-  79 2.90  81 2.90 125 2.91  67 2.94 156 2.94  13 2.94  69 2.94 112 2.94
                           168 2.94 114 2.94   1 2.94  56 2.94
  69  0.167  0.833  0.120-  82 2.91  80 2.91  81 2.91  65 2.94  58 2.94  70 2.94  67 2.94  56 2.94
                            57 2.94  71 2.94  68 2.94  13 2.94
  70  0.333  0.750  0.120-  78 2.89  83 2.90  82 2.91  72 2.94  71 2.94 158 2.94  59 2.94  69 2.94
                            54 2.94  65 2.94  66 2.94  58 2.94
  71  0.250  0.917  0.120-  82 2.90  26 2.91  84 2.91  70 2.94  72 2.94   4 2.94  59 2.94  69 2.94
                            16 2.94  13 2.94  15 2.94  57 2.94
  72  0.417  0.833  0.120-  83 2.89 175 2.91  84 2.91  70 2.94 158 2.94  71 2.94 163 2.94 151 2.94
                            59 2.94 164 2.94  16 2.94  60 2.94
  73  1.000  0.583  0.238-  62 2.91 162 2.91  61 2.91  74 2.92  33 2.94 173 2.94  75 2.94 174 2.94
                           179 2.94  86 2.94 186 2.95  85 2.95
  74  0.166  0.500  0.238-  61 2.89  63 2.90  23 2.91  88 2.92  73 2.92  33 2.93  34 2.94  36 2.94
                            75 2.94  76 2.95  45 2.95  86 2.96
  75  0.083  0.667  0.238-  67 2.90  62 2.90  63 2.91  76 2.93  80 2.94 179 2.94  73 2.94  74 2.94
                            79 2.94  91 2.94  86 2.95  87 2.95
  76  0.249  0.584  0.238-  65 2.89  63 2.90  64 2.91  88 2.93  75 2.93  80 2.93  36 2.93  77 2.94
                            89 2.94  78 2.94  74 2.95  87 2.96
  77  0.416  0.501  0.238-  64 2.89  66 2.89 181 2.90 116 2.91  48 2.91  36 2.93  78 2.94  76 2.94
                           127 2.94  89 2.95 169 2.96 129 2.97
  78  0.333  0.667  0.237-  70 2.89  65 2.90  66 2.91  89 2.93  82 2.93  90 2.93  80 2.94  77 2.94
                            76 2.94  83 2.94 169 2.95  94 2.96
  79  1.000  0.834  0.238-  68 2.90 168 2.90  67 2.91  80 2.94 125 2.94 180 2.94  81 2.94  75 2.94
                           179 2.94  91 2.94 192 2.94  92 2.94
  80  0.166  0.750  0.238-  67 2.90  69 2.91  65 2.91  76 2.93  79 2.94  75 2.94  78 2.94  81 2.94
                            82 2.94  92 2.94  87 2.95  94 2.95
  81  0.083  0.917  0.238-  13 2.90  68 2.90  69 2.91  26 2.94 125 2.94  80 2.94  25 2.94  79 2.94
                            82 2.94  92 2.94  37 2.94  93 2.95
  82  0.250  0.834  0.238-  71 2.90  69 2.91  70 2.91  78 2.93  26 2.93  83 2.94  94 2.94  81 2.94
                            84 2.94  80 2.94  93 2.95  95 2.95
  83  0.417  0.751  0.238-  72 2.89  70 2.90 158 2.91  90 2.93  84 2.93 175 2.93 169 2.94  82 2.94
                           187 2.94  78 2.94 171 2.95  95 2.95
  84  0.333  0.917  0.238-  16 2.91  71 2.91  72 2.91  83 2.93  28 2.93  26 2.94  29 2.94 175 2.94
                            82 2.94  96 2.94  95 2.95  40 2.95
  85  1.000  0.500  0.358-  45 2.93 144 2.93  86 2.94 185 2.94 186 2.94 173 2.94  44 2.94  33 2.95
                            73 2.95
  86  0.082  0.584  0.359-  88 2.91 186 2.93  91 2.93  85 2.94  73 2.94  45 2.94  87 2.95  75 2.95
                            74 2.96
  87  0.166  0.668  0.359-  88 2.91  89 2.93  92 2.93  91 2.93  94 2.94  80 2.95  86 2.95  75 2.95
                            76 2.96
  88  0.247  0.502  0.357-  86 2.91  87 2.91  74 2.92  76 2.93  45 2.94  48 2.95  36 2.95  89 2.96
                            47 2.97
  89  0.332  0.586  0.358-  94 2.92  48 2.92  87 2.93  78 2.93  90 2.93  76 2.94  77 2.95  88 2.96
                           181 2.98
  90  0.416  0.668  0.357-  83 2.93  95 2.93  78 2.93  89 2.93 187 2.94 181 2.94  94 2.94 169 2.94
                           182 2.97
  91  0.999  0.750  0.358-  86 2.93  87 2.93 179 2.94 191 2.94 192 2.94  79 2.94  75 2.94 186 2.94
                            92 2.94
  92  0.083  0.834  0.358-  87 2.93  37 2.93  94 2.93 192 2.94  81 2.94  79 2.94  93 2.94  80 2.94
                            91 2.94
  93  0.166  0.917  0.358-  94 2.93  38 2.93  40 2.93  37 2.94  26 2.94  95 2.94  92 2.94  82 2.95
                            81 2.95
  94  0.249  0.751  0.358-  89 2.92  93 2.93  95 2.93  92 2.93  82 2.94  90 2.94  87 2.94  80 2.95
                            78 2.96
  95  0.333  0.834  0.358-  90 2.93  94 2.93  96 2.94  40 2.94  93 2.94  84 2.95 187 2.95  82 2.95
                            83 2.95
  96  0.417  0.917  0.358-  95 2.94 133 2.94  40 2.94  41 2.94 187 2.94 188 2.94  84 2.94 175 2.94
                            29 2.94
  97  0.500  0.000  0.000-   6 2.94  98 2.94 153 2.94 109 2.94  60 2.94   5 2.94 152 2.94 164 2.94
                            18 2.94
  98  0.583  0.083  0.000-   6 2.94 103 2.94  97 2.94 110 2.94  99 2.94 109 2.94 100 2.94 153 2.94
                           111 2.94
  99  0.667  0.167  0.000- 100 2.94 111 2.94 101 2.94  98 2.94 113 2.94 115 2.94 106 2.94 103 2.94
                           104 2.94
 100  0.750  0.000  0.000-  99 2.94 112 2.94 111 2.94 153 2.94 101 2.94  98 2.94 156 2.94 155 2.94
                           167 2.94
 101  0.833  0.083  0.000- 106 2.94 102 2.94  99 2.94 113 2.94 114 2.94   1 2.94 100 2.94 156 2.94
                           112 2.94
 102  0.917  0.167  0.000-   1 2.94   2 2.94 101 2.94 114 2.94  14 2.94 106 2.94   7 2.94 107 2.94
                           118 2.94
 103  0.500  0.250  0.000-  98 2.94  11 2.94   6 2.94 110 2.94  24 2.94  99 2.94 104 2.94  12 2.94
                           115 2.94
 104  0.583  0.333  0.000- 145 2.94 117 2.94 116 2.94 115 2.94 105 2.94 106 2.94  12 2.94 103 2.94
                            99 2.94
 105  0.667  0.417  0.000- 146 2.94 145 2.94 148 2.94 157 2.94 119 2.94 107 2.94 104 2.94 106 2.94
                           117 2.94
 106  0.750  0.250  0.000- 101 2.94 118 2.94 102 2.94 104 2.94  99 2.94 107 2.94 105 2.94 113 2.94
                           117 2.94
 107  0.833  0.333  0.000- 148 2.94 108 2.94 120 2.94 105 2.94   7 2.94 106 2.94 102 2.94 119 2.94
                           118 2.94
 108  0.917  0.417  0.000- 148 2.94 149 2.94 107 2.94 160 2.94  49 2.94 120 2.94   8 2.94   7 2.94
                            20 2.94
 109  0.583  0.000  0.120- 121 2.90 122 2.91 177 2.91 110 2.94 167 2.94  97 2.94  98 2.94 153 2.94
                            18 2.94 164 2.94 111 2.94 165 2.94
 110  0.500  0.167  0.120-  35 2.90 123 2.91 121 2.91 109 2.94  98 2.94  18 2.94 111 2.94   6 2.94
                           103 2.94  22 2.94 115 2.94  24 2.94
 111  0.667  0.083  0.120- 123 2.91 124 2.91 122 2.91 113 2.94 115 2.94 112 2.94  99 2.94 110 2.94
                           100 2.94 109 2.94 167 2.94  98 2.94
 112  0.833  0.000  0.120- 125 2.91 180 2.91 124 2.91 113 2.94 111 2.94 100 2.94 114 2.94 167 2.94
                            68 2.94 168 2.94 101 2.94 156 2.94
 113  0.750  0.167  0.120- 128 2.90 126 2.91 124 2.91 111 2.94 112 2.94 115 2.94 114 2.94 101 2.94
                            99 2.94 118 2.94 117 2.94 106 2.94
 114  0.917  0.083  0.120- 125 2.90  25 2.90 126 2.91 118 2.94  14 2.94 113 2.94 102 2.94 101 2.94
                            13 2.94 112 2.94  68 2.94   1 2.94
 115  0.583  0.250  0.120- 128 2.90 123 2.91 127 2.92 111 2.94 113 2.94 117 2.94  99 2.94 104 2.94
                            24 2.94 110 2.94 116 2.94 103 2.94
 116  0.500  0.417  0.120- 129 2.90  77 2.91 127 2.91 157 2.94  66 2.94 117 2.94 145 2.94  64 2.94
                           104 2.94  24 2.94 115 2.94  12 2.94
 117  0.667  0.333  0.120- 129 2.89 128 2.91 130 2.91 157 2.94 116 2.94 115 2.94 104 2.94 118 2.94
                           119 2.94 113 2.94 105 2.94 106 2.94
 118  0.833  0.250  0.120- 130 2.90 126 2.91 131 2.91 114 2.94 106 2.94 117 2.94 113 2.94  14 2.94
                           120 2.94 119 2.94 102 2.94 107 2.94
 119  0.750  0.417  0.120- 170 2.89 130 2.91 132 2.91 159 2.94 160 2.94 157 2.94 148 2.94 105 2.94
                           117 2.94 120 2.94 118 2.94 107 2.94
 120  0.917  0.333  0.120- 131 2.91  31 2.91 132 2.91 160 2.94 107 2.94 108 2.94  20 2.94  19 2.94
                           119 2.94 118 2.94  14 2.94   7 2.94
 121  0.500  0.083  0.238- 109 2.90  18 2.90 110 2.91  42 2.93 177 2.93 122 2.93  29 2.94 123 2.94
                            35 2.94 133 2.95 134 2.95  30 2.95
 122  0.667  1.000  0.238- 109 2.91 167 2.91 111 2.91 121 2.93 180 2.94 178 2.94 123 2.94 124 2.94
                           177 2.94 136 2.95 189 2.95 134 2.95
 123  0.583  0.167  0.238- 111 2.91 110 2.91 115 2.91 139 2.93 128 2.93 124 2.94 122 2.94 121 2.94
                           135 2.94  35 2.94 134 2.95 127 2.95
 124  0.750  0.083  0.238- 111 2.91 112 2.91 113 2.91 128 2.93 180 2.93 125 2.94 123 2.94 122 2.94
                           135 2.94 126 2.94 136 2.95 137 2.95
 125  0.916  0.000  0.238- 114 2.90 112 2.91  68 2.91 126 2.94 124 2.94  79 2.94 192 2.94  81 2.94
                            25 2.94 180 2.94  37 2.94 137 2.95
 126  0.833  0.167  0.238- 113 2.91 118 2.91 114 2.91 130 2.93 128 2.93 125 2.94  25 2.94 124 2.94
                           131 2.94 137 2.94 138 2.95 142 2.95
 127  0.499  0.334  0.238-  24 2.91 116 2.91 115 2.92 140 2.92 139 2.92 129 2.94  35 2.94  48 2.94
                            77 2.94  36 2.95 123 2.95 128 2.96
 128  0.667  0.249  0.238- 113 2.90 115 2.90 117 2.91 140 2.92 124 2.93 126 2.93 123 2.93 129 2.94
                           130 2.94 135 2.95 127 2.96 142 2.96
 129  0.584  0.416  0.237- 117 2.89 181 2.89 157 2.90 116 2.90 140 2.93 130 2.94 128 2.94 170 2.94
                           127 2.94 141 2.95  77 2.97 169 2.97
 130  0.751  0.333  0.238- 118 2.90 117 2.91 119 2.91 126 2.93 131 2.93 129 2.94 170 2.94 132 2.94
                           141 2.94 128 2.94 143 2.95 142 2.95
 131  0.917  0.250  0.238- 120 2.91 118 2.91  14 2.91 130 2.93 132 2.93  31 2.94  25 2.94  27 2.94
                            43 2.94 126 2.94 138 2.94 143 2.95
 132  0.833  0.417  0.238- 120 2.91 160 2.91 119 2.91 170 2.93 131 2.93  31 2.94 172 2.94 173 2.94
                           130 2.94 144 2.94 184 2.94 143 2.95
 133  0.500  1.000  0.358-  42 2.93 134 2.94 189 2.94  96 2.94 188 2.94 177 2.94  41 2.95  29 2.95
                           121 2.95
 134  0.583  0.083  0.359- 135 2.93 133 2.94 139 2.94 136 2.94 189 2.94  42 2.94 121 2.95 123 2.95
                           122 2.95
 135  0.667  0.166  0.358- 136 2.93 140 2.93 134 2.93 137 2.94 124 2.94 123 2.94 142 2.95 128 2.95
                           139 2.96
 136  0.750  0.000  0.359- 135 2.93 192 2.93 191 2.94 189 2.94 134 2.94 137 2.94 122 2.95 180 2.95
                           124 2.95
 137  0.833  0.083  0.358- 192 2.93 142 2.93 135 2.94  37 2.94 138 2.94 136 2.94 126 2.94 125 2.95
                           124 2.95
 138  0.917  0.167  0.358-  37 2.93  43 2.94 143 2.94 142 2.94  38 2.94 137 2.94  25 2.94 131 2.94
                           126 2.95
 139  0.499  0.250  0.357- 127 2.92  35 2.93 123 2.93 134 2.94  42 2.94 140 2.95  47 2.95 135 2.96
                            48 2.99
 140  0.584  0.332  0.357- 128 2.92 127 2.92 142 2.92 135 2.93 129 2.93 141 2.95 139 2.95 181 2.98
                            48 3.00
 141  0.667  0.416  0.358- 143 2.93 142 2.93 181 2.94 184 2.94 130 2.94 140 2.95 170 2.95 129 2.95
                           182 2.95
 142  0.750  0.250  0.359- 140 2.92 141 2.93 137 2.93 138 2.94 143 2.94 135 2.95 126 2.95 130 2.95
                           128 2.96
 143  0.833  0.333  0.359- 141 2.93 138 2.94 142 2.94 184 2.94  43 2.94 144 2.94 131 2.95 130 2.95
                           132 2.95
 144  0.917  0.417  0.358-  85 2.93 184 2.94 185 2.94  44 2.94 143 2.94  43 2.94 132 2.94  31 2.94
                           173 2.95
 145  0.500  0.500  0.000- 104 2.94 116 2.94 105 2.94  12 2.94 157 2.94  66 2.94 146 2.94  53 2.94
                            54 2.94
 146  0.583  0.583  0.000- 105 2.94 159 2.94 147 2.94  54 2.94 148 2.94 145 2.94 151 2.94 158 2.94
                           157 2.94
 147  0.667  0.667  0.000- 152 2.94 149 2.94 154 2.94 161 2.94 146 2.94 151 2.94 148 2.94 159 2.94
                           163 2.94
 148  0.750  0.500  0.000- 108 2.94 107 2.94 149 2.94 105 2.94 119 2.94 160 2.94 146 2.94 147 2.94
                           159 2.94
 149  0.833  0.583  0.000- 108 2.94 148 2.94 147 2.94 162 2.94 161 2.94 160 2.94 150 2.94  49 2.94
                           154 2.94
 150  0.917  0.667  0.000- 155 2.94  55 2.94 149 2.94 154 2.94  50 2.94  49 2.94 162 2.94 166 2.94
                            62 2.94
 151  0.500  0.750  0.000-  60 2.94  59 2.94 152 2.94  72 2.94 163 2.94  54 2.94 147 2.94 146 2.94
                           158 2.94
 152  0.583  0.833  0.000- 154 2.94 147 2.94 153 2.94 151 2.94 163 2.94 165 2.94  60 2.94  97 2.94
                           164 2.94
 153  0.667  0.917  0.000- 154 2.94 152 2.94  97 2.94 167 2.94 165 2.94 109 2.94 100 2.94 155 2.94
                            98 2.94
 154  0.750  0.750  0.000- 152 2.94 153 2.94 147 2.94 165 2.94 155 2.94 166 2.94 161 2.94 150 2.94
                           149 2.94
 155  0.833  0.833  0.000- 150 2.94  55 2.94 154 2.94 166 2.94 168 2.94 156 2.94 153 2.94 100 2.94
                           167 2.94
 156  0.917  0.917  0.000-  55 2.94  68 2.94 155 2.94   1 2.94 100 2.94  56 2.94 101 2.94 168 2.94
                           112 2.94
 157  0.583  0.500  0.120- 169 2.89 129 2.90 170 2.90 116 2.94 117 2.94  66 2.94 119 2.94 105 2.94
                           145 2.94 159 2.94 158 2.94 146 2.94
 158  0.500  0.667  0.120- 169 2.88 171 2.91  83 2.91  72 2.94  66 2.94  70 2.94  54 2.94 159 2.94
                           163 2.94 157 2.94 146 2.94 151 2.94
 159  0.667  0.583  0.120- 171 2.90 170 2.90 172 2.91 119 2.94 146 2.94 161 2.94 157 2.94 158 2.94
                           160 2.94 163 2.94 147 2.94 148 2.94
 160  0.833  0.500  0.120- 172 2.90 173 2.91 132 2.91 120 2.94 162 2.94 108 2.94 119 2.94  20 2.94
                           148 2.94 149 2.94 159 2.94 161 2.94
 161  0.750  0.667  0.120- 174 2.91 172 2.91 176 2.91 165 2.94 162 2.94 166 2.94 147 2.94 149 2.94
                           154 2.94 163 2.94 159 2.94 160 2.94
 162  0.917  0.583  0.120- 173 2.91  73 2.91 174 2.91  20 2.94 160 2.94 161 2.94 149 2.94 166 2.94
                           150 2.94  49 2.94  62 2.94  61 2.94
 163  0.583  0.750  0.120- 171 2.89 176 2.91 175 2.91 164 2.94 165 2.94  72 2.94 152 2.94 151 2.94
                           161 2.94 158 2.94 159 2.94 147 2.94
 164  0.500  0.917  0.120- 175 2.90 177 2.91  29 2.91 163 2.94  16 2.94  60 2.94 109 2.94  72 2.94
                           165 2.94  18 2.94  97 2.94 152 2.94
 165  0.667  0.833  0.120- 178 2.91 176 2.91 177 2.91 166 2.94 161 2.94 167 2.94 154 2.94 163 2.94
                           152 2.94 153 2.94 164 2.94 109 2.94
 166  0.833  0.750  0.120- 179 2.90 174 2.91 178 2.91 165 2.94 167 2.94 161 2.94 168 2.94 155 2.94
                           154 2.94 162 2.94 150 2.94  62 2.94
 167  0.750  0.917  0.120- 180 2.90 178 2.91 122 2.91 166 2.94 165 2.94 109 2.94 153 2.94 112 2.94
                           168 2.94 111 2.94 100 2.94 155 2.94
 168  0.917  0.833  0.120- 179 2.90  79 2.90 180 2.91  62 2.94  67 2.94 166 2.94  55 2.94 155 2.94
                            68 2.94 167 2.94 112 2.94 156 2.94
 169  0.500  0.584  0.237- 158 2.88 181 2.88 157 2.89  66 2.90 171 2.93  83 2.94  90 2.94 170 2.95
                           182 2.95  78 2.95  77 2.96 129 2.97
 170  0.667  0.500  0.238- 119 2.89 159 2.90 157 2.90 132 2.93 182 2.93 172 2.94 130 2.94 129 2.94
                           169 2.95 141 2.95 184 2.95 171 2.95
 171  0.584  0.667  0.238- 163 2.89 159 2.90 158 2.91 182 2.93 176 2.93 169 2.93 172 2.94 175 2.94
                           187 2.94  83 2.95 183 2.95 170 2.95
 172  0.750  0.583  0.238- 160 2.90 161 2.91 159 2.91 173 2.94 171 2.94 132 2.94 170 2.94 174 2.94
                           176 2.94 184 2.95 185 2.95 183 2.95
 173  0.917  0.500  0.238- 162 2.91 160 2.91  20 2.91  33 2.93 172 2.94 174 2.94  73 2.94  31 2.94
                           132 2.94  85 2.94 144 2.95 185 2.95
 174  0.833  0.667  0.238- 161 2.91 166 2.91 162 2.91 186 2.94 176 2.94 173 2.94 172 2.94  73 2.94
                           179 2.94 178 2.94 190 2.95 185 2.95
 175  0.500  0.834  0.238- 164 2.90  72 2.91 163 2.91 177 2.93  29 2.93  83 2.93 171 2.94  84 2.94
                           187 2.94 176 2.94  96 2.94 188 2.95
 176  0.667  0.750  0.238- 165 2.91 163 2.91 161 2.91 171 2.93 174 2.94 178 2.94 177 2.94 175 2.94
                           172 2.94 183 2.94 190 2.95 188 2.95
 177  0.583  0.917  0.238- 164 2.91 109 2.91 165 2.91 175 2.93 121 2.93 178 2.94 176 2.94 122 2.94
                            29 2.94 133 2.94 189 2.95 188 2.95
 178  0.750  0.833  0.238- 165 2.91 167 2.91 166 2.91 122 2.94 177 2.94 176 2.94 191 2.94 180 2.94
                           179 2.94 174 2.94 189 2.95 190 2.95
 179  0.916  0.750  0.238- 168 2.90 166 2.90  62 2.91  91 2.94  75 2.94 178 2.94  73 2.94 180 2.94
                           174 2.94  79 2.94 191 2.94 186 2.94
 180  0.833  0.917  0.238- 167 2.90 112 2.91 168 2.91 124 2.93 122 2.94 192 2.94 178 2.94  79 2.94
                           179 2.94 125 2.94 191 2.94 136 2.95
 181  0.501  0.501  0.354- 169 2.88 129 2.89  77 2.90 182 2.93 141 2.94  90 2.94  48 2.96 140 2.98
                            89 2.98
 182  0.584  0.584  0.357- 184 2.92 183 2.92 171 2.93 181 2.93 170 2.93 187 2.94 169 2.95 141 2.95
                            90 2.97
 183  0.667  0.667  0.358- 182 2.92 190 2.93 185 2.93 188 2.94 184 2.94 187 2.94 176 2.94 172 2.95
                           171 2.95
 184  0.750  0.500  0.358- 182 2.92 185 2.94 144 2.94 141 2.94 183 2.94 143 2.94 132 2.94 172 2.95
                           170 2.95
 185  0.833  0.583  0.358- 183 2.93 186 2.93 184 2.94  85 2.94 144 2.94 190 2.94 172 2.95 173 2.95
                           174 2.95
 186  0.916  0.667  0.358- 190 2.93  86 2.93 185 2.93 174 2.94 191 2.94  85 2.94  91 2.94 179 2.94
                            73 2.95
 187  0.500  0.750  0.358- 188 2.93 182 2.94  90 2.94 183 2.94 175 2.94  96 2.94 171 2.94  83 2.94
                            95 2.95
 188  0.583  0.833  0.358- 187 2.93 190 2.93 183 2.94 189 2.94 133 2.94  96 2.94 177 2.95 175 2.95
                           176 2.95
 189  0.667  0.917  0.359- 191 2.93 133 2.94 136 2.94 188 2.94 190 2.94 134 2.94 177 2.95 178 2.95
                           122 2.95
 190  0.750  0.750  0.358- 186 2.93 183 2.93 188 2.93 191 2.94 189 2.94 185 2.94 176 2.95 174 2.95
                           178 2.95
 191  0.833  0.833  0.358- 189 2.93 190 2.94 136 2.94 186 2.94  91 2.94 178 2.94 192 2.94 180 2.94
                           179 2.94
 192  0.916  0.917  0.358- 137 2.93 136 2.93 180 2.94 125 2.94  92 2.94  91 2.94  79 2.94 191 2.94
                            37 2.94
 193  0.419  0.572  0.525- 202 1.22
 194  0.542  0.547  0.520- 202 1.36 203 1.45
 195  0.393  0.256  0.522- 213 1.10 212 1.10 214 1.11 196 1.50
 196  0.426  0.307  0.513- 197 1.40 201 1.42 195 1.50
 197  0.504  0.278  0.511- 206 1.09 196 1.40 198 1.40
 198  0.536  0.325  0.509- 207 1.09 197 1.40 199 1.41
 199  0.488  0.404  0.507- 205 1.40 198 1.41 200 1.41
 200  0.409  0.435  0.504- 208 1.09 199 1.41 201 1.41
 201  0.378  0.387  0.509- 204 1.37 200 1.41 196 1.42
 202  0.487  0.527  0.519- 193 1.22 194 1.36 205 1.38
 203  0.513  0.627  0.528- 215 1.10 217 1.10 216 1.10 194 1.45
 204  0.300  0.418  0.514- 210 1.02 209 1.02 201 1.37
 205  0.521  0.450  0.508- 211 1.02 202 1.38 199 1.40
 206  0.542  0.217  0.514- 197 1.09
 207  0.597  0.301  0.511- 198 1.09
 208  0.372  0.496  0.503- 200 1.09
 209  0.278  0.385  0.501- 204 1.02
 210  0.268  0.473  0.500- 204 1.02
 211  0.579  0.423  0.503- 205 1.02
 212  0.365  0.265  0.571- 195 1.10
 213  0.437  0.196  0.518- 195 1.10
 214  0.350  0.266  0.483- 195 1.11
 215  0.563  0.634  0.524- 203 1.10
 216  0.472  0.659  0.488- 203 1.10
 217  0.486  0.647  0.577- 203 1.10
 
  LATTYP: Found a hexagonal cell.
 ALAT       =    20.3604714350
 C/A-ratio  =     0.9822955261
  
  Lattice vectors:
  
 A1 = (  10.1802357175, -17.6326854957,   0.0000000000)
 A2 = ( -20.3604714350,   0.0000000000,   0.0000000000)
 A3 = (   0.0000000000,   0.0000000000, -20.0000000000)


Analysis of symmetry for initial positions (statically):
=====================================================================
 Subroutine PRICEL returns:
 Original cell was already a primitive cell.
 

 Routine SETGRP: Setting up the symmetry group for a 
 hexagonal supercell.


 Subroutine GETGRP returns: Found  1 space group operations
 (whereof  1 operations were pure point group operations)
 out of a pool of 24 trial point group operations.


The static configuration has the point symmetry C_1 .


Analysis of symmetry for dynamics (positions and initial velocities):
=====================================================================
 Subroutine PRICEL returns:
 Original cell was already a primitive cell.
 

 Routine SETGRP: Setting up the symmetry group for a 
 hexagonal supercell.


 Subroutine GETGRP returns: Found  1 space group operations
 (whereof  1 operations were pure point group operations)
 out of a pool of 24 trial point group operations.


The dynamic configuration has the point symmetry C_1 .


Analysis of constrained symmetry for selective dynamics:
=====================================================================
 Subroutine PRICEL returns:
 Original cell was already a primitive cell.
 

 Routine SETGRP: Setting up the symmetry group for a 
 hexagonal supercell.


 Subroutine GETGRP returns: Found  1 space group operations
 (whereof  1 operations were pure point group operations)
 out of a pool of 24 trial point group operations.


The constrained configuration has the point symmetry C_1 .


 Subroutine INISYM returns: Found  1 space group operations
 (whereof  1 operations are pure point group operations),
 and found     1 'primitive' translations

 
 
 KPOINTS: K-POINTS                                

Automatic generation of k-mesh.
Space group operators:
 irot       det(A)        alpha          n_x          n_y          n_z        tau_x        tau_y        tau_z
    1     1.000000     0.000000     1.000000     0.000000     0.000000     0.000000     0.000000     0.000000
 
 Subroutine IBZKPT returns following result:
 ===========================================
 
 Found      5 irreducible k-points:
 
 Following reciprocal coordinates:
            Coordinates               Weight
  0.000000  0.000000  0.000000      1.000000
  0.333333  0.000000  0.000000      2.000000
  0.000000  0.333333  0.000000      2.000000
  0.333333  0.333333  0.000000      2.000000
 -0.333333  0.333333  0.000000      2.000000
 
 Following cartesian coordinates:
            Coordinates               Weight
  0.000000  0.000000  0.000000      1.000000
  0.016372 -0.009452  0.000000      2.000000
  0.000000  0.018904  0.000000      2.000000
  0.016372  0.009452  0.000000      2.000000
 -0.016372  0.028356  0.000000      2.000000
 


--------------------------------------------------------------------------------------------------------




 Dimension of arrays:
   k-points           NKPTS =      5   k-points in BZ     NKDIM =      5   number of bands    NBANDS=   1320
   number of dos      NEDOS =    301   number of ions     NIONS =    217
   non local maximal  LDIM  =      6   non local SUM 2l+1 LMDIM =     18
   total plane-waves  NPLWV = ******
   max r-space proj   IRMAX =   2164   max aug-charges    IRDMAX=  10927
   dimension x,y,z NGX =   108 NGY =  108 NGZ =  108
   dimension x,y,z NGXF=   216 NGYF=  216 NGZF=  216
   support grid    NGXF=   216 NGYF=  216 NGZF=  216
   ions per type =             192   2   9   2  12
   NGX,Y,Z   is equivalent  to a cutoff of   8.82,  8.82,  8.98 a.u.
   NGXF,Y,Z  is equivalent  to a cutoff of  17.64, 17.64, 17.95 a.u.

 SYSTEM =  x                                       
 POSCAR =  Au  O  C  N  H                          

 Startparameter for this run:
   NWRITE =      0    write-flag & timer
   PREC   = normal    normal or accurate (medium, high low for compatibility)
   ISTART =      0    job   : 0-new  1-cont  2-samecut
   ICHARG =      2    charge: 1-file 2-atom 10-const
   ISPIN  =      1    spin polarized calculation?
   LNONCOLLINEAR =      F non collinear calculations
   LSORBIT =      F    spin-orbit coupling
   INIWAV =      1    electr: 0-lowe 1-rand  2-diag
   LASPH  =      F    aspherical Exc in radial PAW
   METAGGA=      F    non-selfconsistent MetaGGA calc.

 Electronic Relaxation 1
   ENCUT  =  450.0 eV  33.07 Ry    5.75 a.u.  35.22 35.22 34.59*2*pi/ulx,y,z
   ENINI  =  450.0     initial cutoff
   ENAUG  =  644.9 eV  augmentation charge cutoff
   NELM   =     50;   NELMIN=  5; NELMDL= -7     # of ELM steps 
   EDIFF  = 0.1E-04   stopping-criterion for ELM
   LREAL  =      T    real-space projection
   NLSPLINE    = F    spline interpolate recip. space projectors
   LCOMPAT=      F    compatible to vasp.4.4
   GGA_COMPAT  = T    GGA compatible to vasp.4.4-vasp.4.6
   LMAXPAW     = -100 max onsite density
   LMAXMIX     =    2 max onsite mixed and CHGCAR
   VOSKOWN=      0    Vosko Wilk Nusair interpolation
   ROPT   =   -0.00050  -0.00050  -0.00050  -0.00050
   ROPT   =   -0.00050
 Ionic relaxation
   EDIFFG = -.2E-01   stopping-criterion for IOM
   NSW    =    300    number of steps for IOM
   NBLOCK =      1;   KBLOCK =    300    inner block; outer block 
   IBRION =      2    ionic relax: 0-MD 1-quasi-New 2-CG
   NFREE  =      2    steps in history (QN), initial steepest desc. (CG)
   ISIF   =      2    stress and relaxation
   IWAVPR =     11    prediction:  0-non 1-charg 2-wave 3-comb
   ISYM   =      2    0-nonsym 1-usesym 2-fastsym
   LCORR  =      T    Harris-Foulkes like correction to forces

   POTIM  = 0.1500    time-step for ionic-motion
   TEIN   =    0.0    initial temperature
   TEBEG  =    0.0;   TEEND  =   0.0 temperature during run
   SMASS  =  -3.00    Nose mass-parameter (am)
   estimated Nose-frequenzy (Omega)   =  0.10E-29 period in steps =****** mass=  -0.947E-26a.u.
   SCALEE = 1.0000    scale energy and forces
   NPACO  =    256;   APACO  = 16.0  distance and # of slots for P.C.
   PSTRESS=    0.0 pullay stress

  Mass of Ions in am
   POMASS = 196.97 16.00 12.01 14.00  1.00
  Ionic Valenz
   ZVAL   =  11.00  6.00  4.00  5.00  1.00
  Atomic Wigner-Seitz radii
   RWIGS  =  -1.00 -1.00 -1.00 -1.00 -1.00
  virtual crystal weights 
   VCA    =   1.00  1.00  1.00  1.00  1.00
   NELECT =    2182.0000    total number of electrons
   NUPDOWN=      -1.0000    fix difference up-down

 DOS related values:
   EMIN   =  10.00;   EMAX   =-10.00  energy-range for DOS
   EFERMI =   0.00
   ISMEAR =     0;   SIGMA  =   0.03  broadening in eV -4-tet -1-fermi 0-gaus

 Electronic relaxation 2 (details)
   IALGO  =     68    algorithm
   LDIAG  =      T    sub-space diagonalisation (order eigenvalues)
   LSUBROT=      F    optimize rotation matrix (better conditioning)
   TURBO    =      0    0=normal 1=particle mesh
   IRESTART =      0    0=no restart 2=restart with 2 vectors
   NREBOOT  =      0    no. of reboots
   NMIN     =      0    reboot dimension
   EREF     =   0.00    reference energy to select bands
   IMIX   =      4    mixing-type and parameters
     AMIX     =   0.40;   BMIX     =  1.00
     AMIX_MAG =   1.60;   BMIX_MAG =  1.00
     AMIN     =   0.10
     WC   =   100.;   INIMIX=   1;  MIXPRE=   1;  MAXMIX= -45

 Intra band minimization:
   WEIMIN = 0.0010     energy-eigenvalue tresh-hold
   EBREAK =  0.19E-08  absolut break condition
   DEPER  =   0.30     relativ break condition  

   TIME   =   0.40     timestep for ELM

  volume/ion in A,a.u.               =      33.09       223.29
  Fermi-wavevector in a.u.,A,eV,Ry     =   1.100646  2.079919 16.482391  1.211422
  Thomas-Fermi vector in A             =   2.237060
 
 Write flags
   LWAVE        =      F    write WAVECAR
   LDOWNSAMPLE  =      F    k-point downsampling of WAVECAR
   LCHARG       =      F    write CHGCAR
   LVTOT        =      F    write LOCPOT, total local potential
   LVHAR        =      F    write LOCPOT, Hartree potential only
   LELF         =      F    write electronic localiz. function (ELF)
   LORBIT       =      0    0 simple, 1 ext, 2 COOP (PROOUT), +10 PAW based schemes


 Dipole corrections
   LMONO  =      F    monopole corrections only (constant potential shift)
   LDIPOL =      T    correct potential (dipole corrections)
   IDIPOL =      3    1-x, 2-y, 3-z, 4-all directions 
   EPSILON=  1.0000000 bulk dielectric constant

 Exchange correlation treatment:
   GGA     =    PE    GGA type
   LEXCH   =     8    internal setting for exchange type
   VOSKOWN=      0    Vosko Wilk Nusair interpolation
   LHFCALC =     F    Hartree Fock is set to
   LHFONE  =     F    Hartree Fock one center treatment
   AEXX    =    0.0000 exact exchange contribution

 Linear response parameters
   LEPSILON=     F    determine dielectric tensor
   LRPA    =     F    only Hartree local field effects (RPA)
   LNABLA  =     F    use nabla operator in PAW spheres
   LVEL    =     F    velocity operator in full k-point grid
   LINTERFAST=   F  fast interpolation
   KINTER  =     0    interpolate to denser k-point grid
   CSHIFT  =0.1000    complex shift for real part using Kramers Kronig
   OMEGAMAX=  -1.0    maximum frequency
   DEG_THRESHOLD= 0.2000000E-02 threshold for treating states as degnerate
   RTIME   =   -0.100 relaxation time in fs
  (WPLASMAI=    0.000 imaginary part of plasma frequency in eV, 0.658/RTIME)
   DFIELD  = 0.0000000 0.0000000 0.0000000 field for delta impulse in time
 
 Orbital magnetization related:
   ORBITALMAG=     F  switch on orbital magnetization
   LCHIMAG   =     F  perturbation theory with respect to B field
   DQ        =  0.001000  dq finite difference perturbation B field
   LLRAUG    =     F  two centre corrections for induced B field



--------------------------------------------------------------------------------------------------------


 conjugate gradient relaxation of ions
   using selective dynamics as specified on POSCAR
 charge density and potential will be updated during run
 non-spin polarized calculation
 RMM-DIIS sequential band-by-band and
  variant of blocked Davidson during initial phase
 perform sub-space diagonalisation
    before iterative eigenvector-optimisation
 modified Broyden-mixing scheme, WC =      100.0
 initial mixing is a Kerker type mixing with AMIX =  0.4000 and BMIX =      1.0000
 Hartree-type preconditioning will be used
 using additional bands          229
 real space projection scheme for non local part
 use partial core corrections
 calculate Harris-corrections to forces 
   (improved forces if not selfconsistent)
 use gradient corrections 
 use of overlap-Matrix (Vanderbilt PP)
 Gauss-broadening in eV      SIGMA  =   0.03


--------------------------------------------------------------------------------------------------------


  energy-cutoff  :      450.00
  volume of cell :     7180.20
      direct lattice vectors                 reciprocal lattice vectors
    20.360471435  0.000000000  0.000000000     0.049114776 -0.028356429  0.000000000
    10.180235718 17.632685496  0.000000000     0.000000000  0.056712859  0.000000000
     0.000000000  0.000000000 20.000000000     0.000000000  0.000000000  0.050000000

  length of vectors
    20.360471435 20.360471435 20.000000000     0.056712859  0.056712859  0.050000000


 
 k-points in units of 2pi/SCALE and weight: K-POINTS                                
   0.00000000  0.00000000  0.00000000       0.111
   0.01637159 -0.00945214  0.00000000       0.222
   0.00000000  0.01890429  0.00000000       0.222
   0.01637159  0.00945214  0.00000000       0.222
  -0.01637159  0.02835643  0.00000000       0.222
 
 k-points in reciprocal lattice and weights: K-POINTS                                
   0.00000000  0.00000000  0.00000000       0.111
   0.33333333  0.00000000  0.00000000       0.222
   0.00000000  0.33333333  0.00000000       0.222
   0.33333333  0.33333333  0.00000000       0.222
  -0.33333333  0.33333333  0.00000000       0.222
 
 position of ions in fractional coordinates (direct lattice) 
   0.00000000  0.00000000  0.00000000
   0.08333333  0.08333333  0.00000000
   0.16666667  0.16666667  0.00000000
   0.25000000  0.00000000  0.00000000
   0.33333333  0.08333333  0.00000000
   0.41666667  0.16666667  0.00000000
   0.00000000  0.25000000  0.00000000
   0.08333333  0.33333333  0.00000000
   0.16666667  0.41666667  0.00000000
   0.25000000  0.25000000  0.00000000
   0.33333333  0.33333333  0.00000000
   0.41666667  0.41666667  0.00000000
   0.08333333  0.00000000  0.11997523
   0.00000000  0.16666667  0.11997523
   0.16666667  0.08333333  0.11997523
   0.33333333  0.00000000  0.11997523
   0.25000000  0.16666667  0.11997523
   0.41666667  0.08333333  0.11997523
   0.08333333  0.25000000  0.11997523
   1.00000000  0.41666667  0.11997523
   0.16666667  0.33333333  0.11997523
   0.33333333  0.25000000  0.11997523
   0.25000000  0.41666667  0.11997523
   0.41666667  0.33333333  0.11997523
   0.99978452  0.08362067  0.23792042
   0.16673735  0.99992064  0.23796879
   0.08328504  0.16666908  0.23794307
   0.24982234  0.08340738  0.23804118
   0.41657655  0.00012416  0.23807610
   0.33279782  0.16673906  0.23762001
   0.99991911  0.33347248  0.23803825
   0.16632731  0.25003225  0.23793281
   0.08283195  0.41689303  0.23797326
   0.24867257  0.33368306  0.23714109
   0.41645908  0.24984797  0.23729908
   0.33239239  0.41781871  0.23753356
   0.99990138  0.00029253  0.35804872
   0.08344148  0.08328232  0.35818779
   0.16652812  0.16668239  0.35848857
   0.24990562  0.00019935  0.35861677
   0.33300251  0.08348887  0.35836230
   0.41625386  0.16606244  0.35712674
   0.00003249  0.24996120  0.35830115
   0.08329287  0.33327482  0.35844381
   0.16568978  0.41724021  0.35851845
   0.24947943  0.25028261  0.35834800
   0.33165242  0.33411064  0.35461201
   0.41425283  0.41977056  0.35692439
   1.00000000  0.50000000  0.00000000
   0.08333333  0.58333333  0.00000000
   0.16666667  0.66666667  0.00000000
   0.25000000  0.50000000  0.00000000
   0.33333333  0.58333333  0.00000000
   0.41666667  0.66666667  0.00000000
   1.00000000  0.75000000  0.00000000
   0.08333333  0.83333333  0.00000000
   0.16666667  0.91666667  0.00000000
   0.25000000  0.75000000  0.00000000
   0.33333333  0.83333333  0.00000000
   0.41666667  0.91666667  0.00000000
   0.08333333  0.50000000  0.11997523
   0.00000000  0.66666667  0.11997523
   0.16666667  0.58333333  0.11997523
   0.33333333  0.50000000  0.11997523
   0.25000000  0.66666667  0.11997523
   0.41666667  0.58333333  0.11997523
   0.08333333  0.75000000  0.11997523
   1.00000000  0.91666667  0.11997523
   0.16666667  0.83333333  0.11997523
   0.33333333  0.75000000  0.11997523
   0.25000000  0.91666667  0.11997523
   0.41666667  0.83333333  0.11997523
   0.99989383  0.58349860  0.23801055
   0.16577163  0.50029900  0.23751324
   0.08307304  0.66694351  0.23793933
   0.24917472  0.58421005  0.23757054
   0.41585052  0.50080137  0.23750963
   0.33279714  0.66745768  0.23749815
   0.99973793  0.83364450  0.23792345
   0.16620439  0.75032738  0.23803490
   0.08311026  0.91697077  0.23786189
   0.24983311  0.83358381  0.23792975
   0.41651811  0.75074991  0.23763823
   0.33320658  0.91697461  0.23807572
   0.99965273  0.50017271  0.35845967
   0.08216718  0.58411067  0.35863581
   0.16582440  0.66773129  0.35880186
   0.24710784  0.50246792  0.35719674
   0.33183596  0.58560801  0.35754829
   0.41607556  0.66766584  0.35688136
   0.99941925  0.75042271  0.35794853
   0.08282936  0.83399145  0.35811452
   0.16647492  0.91718226  0.35827564
   0.24926224  0.75119298  0.35840767
   0.33318732  0.83366958  0.35846603
   0.41660317  0.91678092  0.35837071
   0.50000000  0.00000000  0.00000000
   0.58333333  0.08333333  0.00000000
   0.66666667  0.16666667  0.00000000
   0.75000000  0.00000000  0.00000000
   0.83333333  0.08333333  0.00000000
   0.91666667  0.16666667  0.00000000
   0.50000000  0.25000000  0.00000000
   0.58333333  0.33333333  0.00000000
   0.66666667  0.41666667  0.00000000
   0.75000000  0.25000000  0.00000000
   0.83333333  0.33333333  0.00000000
   0.91666667  0.41666667  0.00000000
   0.58333333  0.00000000  0.11997523
   0.50000000  0.16666667  0.11997523
   0.66666667  0.08333333  0.11997523
   0.83333333  0.00000000  0.11997523
   0.75000000  0.16666667  0.11997523
   0.91666667  0.08333333  0.11997523
   0.58333333  0.25000000  0.11997523
   0.50000000  0.41666667  0.11997523
   0.66666667  0.33333333  0.11997523
   0.83333333  0.25000000  0.11997523
   0.75000000  0.41666667  0.11997523
   0.91666667  0.33333333  0.11997523
   0.50020105  0.08299959  0.23781332
   0.66662730  0.99997223  0.23802104
   0.58336701  0.16658212  0.23792236
   0.74997014  0.08325100  0.23796918
   0.91647291  0.00024809  0.23793753
   0.83327207  0.16670271  0.23806733
   0.49943730  0.33381765  0.23827934
   0.66707599  0.24932161  0.23766710
   0.58403489  0.41598933  0.23731724
   0.75051863  0.33278690  0.23784084
   0.91661716  0.25022536  0.23808782
   0.83343630  0.41663637  0.23810827
   0.50005942  0.99998783  0.35846252
   0.58307544  0.08344906  0.35854642
   0.66681892  0.16605103  0.35821936
   0.74980139  0.00000528  0.35850993
   0.83330675  0.08342944  0.35846985
   0.91673383  0.16672937  0.35832881
   0.49914321  0.25007931  0.35688390
   0.58426550  0.33215135  0.35671143
   0.66726993  0.41621772  0.35802421
   0.75008642  0.24984135  0.35891813
   0.83324256  0.33334228  0.35856813
   0.91658804  0.41679087  0.35839051
   0.50000000  0.50000000  0.00000000
   0.58333333  0.58333333  0.00000000
   0.66666667  0.66666667  0.00000000
   0.75000000  0.50000000  0.00000000
   0.83333333  0.58333333  0.00000000
   0.91666667  0.66666667  0.00000000
   0.50000000  0.75000000  0.00000000
   0.58333333  0.83333333  0.00000000
   0.66666667  0.91666667  0.00000000
   0.75000000  0.75000000  0.00000000
   0.83333333  0.83333333  0.00000000
   0.91666667  0.91666667  0.00000000
   0.58333333  0.50000000  0.11997523
   0.50000000  0.66666667  0.11997523
   0.66666667  0.58333333  0.11997523
   0.83333333  0.50000000  0.11997523
   0.75000000  0.66666667  0.11997523
   0.91666667  0.58333333  0.11997523
   0.58333333  0.75000000  0.11997523
   0.50000000  0.91666667  0.11997523
   0.66666667  0.83333333  0.11997523
   0.83333333  0.75000000  0.11997523
   0.75000000  0.91666667  0.11997523
   0.91666667  0.83333333  0.11997523
   0.50017763  0.58425612  0.23689058
   0.66724538  0.49951370  0.23751692
   0.58356892  0.66707796  0.23756812
   0.75013926  0.58322775  0.23793269
   0.91660391  0.50017337  0.23805133
   0.83320969  0.66677100  0.23797646
   0.49990751  0.83377500  0.23796423
   0.66666063  0.75004688  0.23795678
   0.58329075  0.91667128  0.23813554
   0.74982192  0.83348229  0.23797139
   0.91648979  0.75018551  0.23790110
   0.83308063  0.91687319  0.23794550
   0.50084655  0.50107471  0.35391193
   0.58444839  0.58358280  0.35696907
   0.66694161  0.66676805  0.35845087
   0.75000693  0.50006217  0.35838235
   0.83313502  0.58341291  0.35849580
   0.91594112  0.66698711  0.35810412
   0.50023176  0.75004857  0.35784249
   0.58339206  0.83324105  0.35847391
   0.66655124  0.91669136  0.35854760
   0.74984327  0.75005453  0.35842587
   0.83287405  0.83349961  0.35809485
   0.91616327  0.91710932  0.35789575
   0.41879016  0.57154802  0.52494822
   0.54168415  0.54705796  0.52023936
   0.39318261  0.25570163  0.52169079
   0.42593102  0.30674184  0.51303714
   0.50429332  0.27818513  0.51108953
   0.53612542  0.32530965  0.50865845
   0.48797840  0.40447698  0.50722145
   0.40897072  0.43474271  0.50363749
   0.37781760  0.38654870  0.50925796
   0.48686997  0.52724402  0.51874292
   0.51330806  0.62741704  0.52817326
   0.30045571  0.41830655  0.51410834
   0.52140125  0.45002413  0.50828514
   0.54197851  0.21688077  0.51370782
   0.59746680  0.30097707  0.51114473
   0.37186062  0.49594429  0.50303235
   0.27772166  0.38538167  0.50142684
   0.26823721  0.47336890  0.50006247
   0.57880120  0.42275888  0.50300423
   0.36487676  0.26497292  0.57063807
   0.43748146  0.19570446  0.51794325
   0.35027028  0.26557971  0.48302358
   0.56323967  0.63417953  0.52365184
   0.47215061  0.65938227  0.48846318
   0.48590536  0.64675269  0.57726629
 
 position of ions in cartesian coordinates  (Angst):
   0.00000000  0.00000000  0.00000000
   2.54505893  1.46939046  0.00000000
   5.09011786  2.93878092  0.00000000
   5.09011786  0.00000000  0.00000000
   7.63517679  1.46939046  0.00000000
  10.18023572  2.93878092  0.00000000
   2.54505893  4.40817137  0.00000000
   5.09011786  5.87756183  0.00000000
   7.63517679  7.34695229  0.00000000
   7.63517679  4.40817137  0.00000000
  10.18023572  5.87756183  0.00000000
  12.72529465  7.34695229  0.00000000
   1.69670595  0.00000000  2.39950457
   1.69670595  2.93878092  2.39950457
   4.24176488  1.46939046  2.39950457
   6.78682381  0.00000000  2.39950457
   6.78682381  2.93878092  2.39950457
   9.33188274  1.46939046  2.39950457
   4.24176488  4.40817137  2.39950457
  24.60223632  7.34695229  2.39950457
   6.78682381  5.87756183  2.39950457
   9.33188274  4.40817137  2.39950457
   9.33188274  7.34695229  2.39950457
  11.87694167  5.87756183  2.39950457
  21.20736233  1.47445703  4.75840846
  13.57427877 17.63128616  4.75937572
   3.39245328  2.93882356  4.75886138
   5.93560745  1.47069604  4.76082364
   8.48295887  0.00218924  4.76152202
   8.47336336  2.94005743  4.75240022
  23.75365288  5.88001542  4.76076494
   5.93188958  4.40873996  4.75865612
   5.93056683  7.35094367  4.75946516
   8.46006299  5.88372853  4.74282186
  11.02281445  4.40549063  4.74598157
  11.02115884  7.36726596  4.75067129
  20.36144154  0.00515807  7.16097444
   2.54674142  1.46849097  7.16375578
   5.08745716  2.93905820  7.16977136
   5.09022573  0.00351502  7.17233532
   7.63002439  1.47213295  7.16724609
  10.16567969  2.92812677  7.14253484
   2.54532544  4.40748717  7.16602295
   5.08869827  5.87653012  7.16887625
   7.62112565  7.35706545  7.17036907
   7.62745472  4.41315460  7.16695994
  10.15392472  5.89126789  7.09224028
  12.70774619  7.40168225  7.13848780
  25.45058929  8.81634275  0.00000000
   7.63517679 10.28573321  0.00000000
  10.18023572 11.75512366  0.00000000
  10.18023572  8.81634275  0.00000000
  12.72529465 10.28573321  0.00000000
  15.27035358 11.75512366  0.00000000
  27.99564822 13.22451412  0.00000000
  10.18023572 14.69390458  0.00000000
  12.72529465 16.16329504  0.00000000
  12.72529465 13.22451412  0.00000000
  15.27035358 14.69390458  0.00000000
  17.81541251 16.16329504  0.00000000
   6.78682381  8.81634275  2.39950457
   6.78682381 11.75512366  2.39950457
   9.33188274 10.28573321  2.39950457
  11.87694167  8.81634275  2.39950457
  11.87694167 11.75512366  2.39950457
  14.42200060 10.28573321  2.39950457
   9.33188274 13.22451412  2.39950457
  29.69235418 16.16329504  2.39950457
  11.87694167 14.69390458  2.39950457
  14.42200060 13.22451412  2.39950457
  14.42200060 16.16329504  2.39950457
  16.96705953 14.69390458  2.39950457
  26.29846302 10.28864731  4.76021092
   8.46835022  8.82161483  4.75026487
   8.48104838 11.76000524  4.75878659
  11.02071076 10.30119210  4.75141073
  13.56518858  8.83047303  4.75019260
  13.57078317 11.76907142  4.74996303
  28.84183296 14.69939123  4.75846907
  11.02250933 13.23028680  4.76069808
  11.02714255 16.16865718  4.75723778
  13.57279955 14.69832120  4.75859491
  16.12331612 13.23773713  4.75276459
  16.11926075 16.16872491  4.76151441
  25.44527699  8.81938816  7.16919346
   7.61934686 10.29943975  7.17271622
  10.17392486 11.77389582  7.17603727
  10.14647391  8.85985880  7.14393484
  12.71796413 10.32584178  7.15096578
  15.26849022 11.77274183  7.13762721
  27.98812712 13.23196756  7.15897059
  10.17667431 14.70550900  7.16229031
  12.72663953 16.17238637  7.16551282
  12.72241829 13.24554958  7.16815345
  15.27080383 14.69983353  7.16932054
  17.81528281 16.16530966  7.16741417
  10.18023572  0.00000000  0.00000000
  12.72529465  1.46939046  0.00000000
  15.27035358  2.93878092  0.00000000
  15.27035358  0.00000000  0.00000000
  17.81541251  1.46939046  0.00000000
  20.36047144  2.93878092  0.00000000
  12.72529465  4.40817137  0.00000000
  15.27035358  5.87756183  0.00000000
  17.81541251  7.34695229  0.00000000
  17.81541251  4.40817137  0.00000000
  20.36047144  5.87756183  0.00000000
  22.90553036  7.34695229  0.00000000
  11.87694167  0.00000000  2.39950457
  11.87694167  2.93878092  2.39950457
  14.42200060  1.46939046  2.39950457
  16.96705953  0.00000000  2.39950457
  16.96705953  2.93878092  2.39950457
  19.51211846  1.46939046  2.39950457
  14.42200060  4.40817137  2.39950457
  14.42200060  7.34695229  2.39950457
  16.96705953  5.87756183  2.39950457
  19.51211846  4.40817137  2.39950457
  19.51211846  7.34695229  2.39950457
  22.05717739  5.87756183  2.39950457
  11.02928459  1.46350568  4.75626641
  23.75279913 17.63219584  4.76042080
  13.57347256  2.93729017  4.75844717
  16.11726035  1.46793866  4.75938364
  18.66234616  0.00437450  4.75875066
  18.66288500  2.93941646  4.76134654
  13.56712118  5.88610157  4.76558684
  16.12013441  4.39620948  4.75334195
  16.12609516  7.33500902  4.74634476
  18.66876218  5.86792682  4.75681674
  21.21011066  4.41214508  4.76175641
  21.21061245  7.34641800  4.76216530
  20.36155733 17.63247083  7.16925031
  12.72122193  1.47143095  7.17092838
  15.26718619  2.92792553  7.16438720
  15.26636356  0.00009318  7.17019868
  17.81584959  1.47108515  7.16939701
  20.36247722  2.93988658  7.16657616
  12.70865737  4.40956982  7.13767802
  15.27730007  5.85672028  7.13422868
  17.82312486  7.33903608  7.16048420
  17.81555700  4.40537400  7.17836255
  20.35871421  5.87771954  7.17136270
  22.90519384  7.34914236  7.16781029
  15.27035358  8.81634275  0.00000000
  17.81541251 10.28573321  0.00000000
  20.36047143 11.75512366  0.00000000
  20.36047144  8.81634275  0.00000000
  22.90553036 10.28573321  0.00000000
  25.45058929 11.75512366  0.00000000
  17.81541251 13.22451412  0.00000000
  20.36047144 14.69390458  0.00000000
  22.90553036 16.16329504  0.00000000
  22.90553036 13.22451412  0.00000000
  25.45058929 14.69390458  0.00000000
  27.99564822 16.16329504  0.00000000
  16.96705953  8.81634275  2.39950457
  16.96705953 11.75512366  2.39950457
  19.51211846 10.28573321  2.39950457
  22.05717739  8.81634275  2.39950457
  22.05717739 11.75512366  2.39950457
  24.60223632 10.28573321  2.39950457
  19.51211846 13.22451412  2.39950457
  19.51211846 16.16329504  2.39950457
  22.05717739 14.69390458  2.39950457
  24.60223632 13.22451412  2.39950457
  24.60223632 16.16329504  2.39950457
  27.14729525 14.69390458  2.39950457
  16.13171735 10.30200433  4.73781167
  18.67059770  8.80776797  4.75033842
  18.67274922 11.76237581  4.75136241
  21.21058490 10.28387155  4.75865376
  23.75437042  8.81939964  4.76102663
  23.75242795 11.75696330  4.75952925
  18.66637855 14.70169232  4.75928454
  21.20917886 13.22534076  4.75913565
  21.20800427 16.16337639  4.76271072
  23.75177399 14.69653107  4.75942771
  26.29722947 13.22778519  4.75802192
  26.29589967 16.16693663  4.75891006
  15.29853043  8.83529273  7.07823850
  17.84065526 10.29013199  7.13938149
  20.36710159 11.75691128  7.16901732
  20.36124541  8.81743891  7.16764702
  22.90230268 10.28713638  7.16991605
  25.43907898 11.76077390  7.16208245
  17.82062569 13.22537053  7.15684985
  20.36072775 14.69227746  7.16947814
  22.90343153 16.16373049  7.17095195
  22.90289447 13.22547559  7.16851730
  25.44293083 14.69683651  7.16189694
  27.98990512 16.17110015  7.15791499
  14.34525873 10.07792656 10.49896433
  16.59812363  9.64610092 10.40478721
  10.60848629  4.50870651 10.43381589
  11.79486059  5.40868245 10.26074289
  13.09963999  4.90515099 10.22179066
  14.22749518  5.73608280 10.17316905
  14.05314126  7.13201531 10.14442903
  12.75261988  7.66568147 10.07274985
  11.62770134  6.81589174 10.18515913
  15.28037045  9.29672795 10.37485833
  16.83844744 11.06304728 10.56346524
  10.37587917  7.37586791 10.28216682
  15.19732706  7.93513393 10.16570285
  13.24283537  3.82419033 10.27415648
  15.22872323  5.30703398 10.22289456
  12.62008722  8.74482962 10.06064703
   9.57782013  6.79531376 10.02853690
  10.28044307  8.34676488 10.00124938
  16.08845028  7.45437430 10.06008461
  10.12654965  4.67218418 11.41276133
  10.89964626  3.45079511 10.35886504
   9.83533210  4.68288354  9.66047167
  17.92392232 11.18228813 10.47303689
  16.32587590 11.62668019  9.76926354
  16.47735705 11.40398677 11.54532587
 


--------------------------------------------------------------------------------------------------------


 k-point  1 :   0.0000 0.0000 0.0000  plane waves:  155667
 k-point  2 :   0.3333 0.0000 0.0000  plane waves:  155683
 k-point  3 :   0.0000 0.3333 0.0000  plane waves:  155683
 k-point  4 :   0.3333 0.3333 0.0000  plane waves:  155683
 k-point  5 :  -0.3333 0.3333 0.0000  plane waves:  155607

 maximum and minimum number of plane-waves per node :     38947    38880

 maximum number of plane-waves:    155683
 maximum index in each direction: 
   IXMAX=   35   IYMAX=   35   IZMAX=   34
   IXMIN=  -35   IYMIN=  -35   IZMIN=  -34


 real space projection operators:
  total allocation   :      57355.41 KBytes
  max/ min on nodes  :      14341.18      14336.84


 parallel 3D FFT for wavefunctions:
    minimum data exchange during FFTs selected (reduces bandwidth)
 parallel 3D FFT for charge:
    minimum data exchange during FFTs selected (reduces bandwidth)


 total amount of memory used by VASP MPI-rank0   455982. kBytes
=======================================================================

   base      :      30000. kBytes
   nonlr-proj:      25556. kBytes
   fftplans  :      17430. kBytes
   grid      :      31444. kBytes
   one-center:        855. kBytes
   wavefun   :     350697. kBytes
 
     INWAV:  cpu time    0.0000: real time    0.0004
 Broyden mixing: mesh for mixing (old mesh)
   NGX = 71   NGY = 71   NGZ = 69
  (NGX  =216   NGY  =216   NGZ  =216)
  gives a total of 347829 points

 initial charge density was supplied:
 charge density of overlapping atoms calculated
 number of electron    2182.0000000 magnetization 
 keeping initial charge density in first step


--------------------------------------------------------------------------------------------------------


 Maximum index for non-local projection operator          540
 Maximum index for augmentation-charges          527 (set IRDMAX)


--------------------------------------------------------------------------------------------------------


 First call to EWALD:  gamma=   0.092
 Maximum number of real-space cells 3x 3x 3
 Maximum number of reciprocal cells 3x 3x 3

    FEWALD:  cpu time    0.0100: real time    0.0100


--------------------------------------- Iteration      1(   1)  ---------------------------------------


    POTLOK:  cpu time    0.1851: real time    0.1999
    SETDIJ:  cpu time    0.0186: real time    0.0236
     EDDAV:  cpu time  153.0530: real time  153.1295
       DOS:  cpu time    0.0020: real time    0.0028
    --------------------------------------------
      LOOP:  cpu time  153.2588: real time  153.3559

 eigenvalue-minimisations  : 13248
 total energy-change (2. order) : 0.1381914E+05  (-0.9461354E+05)
 number of electron    2182.0000000 magnetization 
 augmentation part     2182.0000000 magnetization 

 DIPCOR: dipole corrections for dipol
 direction  3 min pos   155,
 dipolmoment           0.000000      0.000000     -0.026088 electrons x Angstroem
 Tr[quadrupol]   -157542.663629

 energy correction for charged system         0.000000 eV
 dipol+quadrupol energy correction           -0.000009 eV
 added-field ion interaction         -0.712860 eV  (added to PSCEN)


 Free energy of the ion-electron system (eV)
  ---------------------------------------------------
  alpha Z        PSCENC =      6269.92469052
  Ewald energy   TEWEN  =    334602.35874508
  -Hartree energ DENC   =   -526517.86331339
  -exchange      EXHF   =         0.00000000
  -V(xc)+E(xc)   XCENC  =      3175.41323669
  PAW double counting   =    169931.99180740  -165510.42754507
  entropy T*S    EENTRO =        -0.04362606
  eigenvalues    EBANDS =     11192.40512284
  atomic energy  EATOM  =    180675.37932380
  Solvation  Ediel_sol  =         0.00000000
  ---------------------------------------------------
  free energy    TOTEN  =     13819.13844181 eV

  energy without entropy =    13819.18206787  energy(sigma->0) =    13819.16025484


--------------------------------------------------------------------------------------------------------




--------------------------------------- Iteration      1(   2)  ---------------------------------------


     EDDAV:  cpu time  166.6092: real time  166.6608
       DOS:  cpu time    0.0020: real time    0.0020
    --------------------------------------------
      LOOP:  cpu time  166.6111: real time  166.6627

 eigenvalue-minimisations  : 14772
 total energy-change (2. order) :-0.1377716E+05  (-0.1280655E+05)
 number of electron    2182.0000000 magnetization 
 augmentation part     2182.0000000 magnetization 

 DIPCOR: dipole corrections for dipol
 direction  3 min pos   155,
 dipolmoment           0.000000      0.000000     -0.026088 electrons x Angstroem
 Tr[quadrupol]   -157542.663629

 energy correction for charged system         0.000000 eV
 dipol+quadrupol energy correction           -0.000009 eV
 added-field ion interaction         -0.712860 eV  (added to PSCEN)


 Free energy of the ion-electron system (eV)
  ---------------------------------------------------
  alpha Z        PSCENC =      6269.92469052
  Ewald energy   TEWEN  =    334602.35874508
  -Hartree energ DENC   =   -526517.86331339
  -exchange      EXHF   =         0.00000000
  -V(xc)+E(xc)   XCENC  =      3175.41323669
  PAW double counting   =    169931.99180740  -165510.42754507
  entropy T*S    EENTRO =        -0.03245998
  eigenvalues    EBANDS =     -2584.77085414
  atomic energy  EATOM  =    180675.37932380
  Solvation  Ediel_sol  =         0.00000000
  ---------------------------------------------------
  free energy    TOTEN  =        41.97363090 eV

  energy without entropy =       42.00609088  energy(sigma->0) =       41.98986089


--------------------------------------------------------------------------------------------------------




--------------------------------------- Iteration      1(   3)  ---------------------------------------


     EDDAV:  cpu time  168.2457: real time  168.2975
       DOS:  cpu time    0.0020: real time    0.0020
    --------------------------------------------
      LOOP:  cpu time  168.2477: real time  168.2995

 eigenvalue-minimisations  : 14916
 total energy-change (2. order) :-0.8262350E+03  (-0.7886096E+03)
 number of electron    2182.0000000 magnetization 
 augmentation part     2182.0000000 magnetization 

 DIPCOR: dipole corrections for dipol
 direction  3 min pos   155,
 dipolmoment           0.000000      0.000000     -0.026088 electrons x Angstroem
 Tr[quadrupol]   -157542.663629

 energy correction for charged system         0.000000 eV
 dipol+quadrupol energy correction           -0.000009 eV
 added-field ion interaction         -0.712860 eV  (added to PSCEN)


 Free energy of the ion-electron system (eV)
  ---------------------------------------------------
  alpha Z        PSCENC =      6269.92469052
  Ewald energy   TEWEN  =    334602.35874508
  -Hartree energ DENC   =   -526517.86331339
  -exchange      EXHF   =         0.00000000
  -V(xc)+E(xc)   XCENC  =      3175.41323669
  PAW double counting   =    169931.99180740  -165510.42754507
  entropy T*S    EENTRO =        -0.04697043
  eigenvalues    EBANDS =     -3410.99133148
  atomic energy  EATOM  =    180675.37932380
  Solvation  Ediel_sol  =         0.00000000
  ---------------------------------------------------
  free energy    TOTEN  =      -784.26135688 eV

  energy without entropy =     -784.21438645  energy(sigma->0) =     -784.23787166


--------------------------------------------------------------------------------------------------------




--------------------------------------- Iteration      1(   4)  ---------------------------------------


     EDDAV:  cpu time  170.3865: real time  170.4281
       DOS:  cpu time    0.0020: real time    0.0020
    --------------------------------------------
      LOOP:  cpu time  170.3885: real time  170.4302

 eigenvalue-minimisations  : 15144
 total energy-change (2. order) :-0.2429397E+02  (-0.2397121E+02)
 number of electron    2182.0000000 magnetization 
 augmentation part     2182.0000000 magnetization 

 DIPCOR: dipole corrections for dipol
 direction  3 min pos   155,
 dipolmoment           0.000000      0.000000     -0.026088 electrons x Angstroem
 Tr[quadrupol]   -157542.663629

 energy correction for charged system         0.000000 eV
 dipol+quadrupol energy correction           -0.000009 eV
 added-field ion interaction         -0.712860 eV  (added to PSCEN)


 Free energy of the ion-electron system (eV)
  ---------------------------------------------------
  alpha Z        PSCENC =      6269.92469052
  Ewald energy   TEWEN  =    334602.35874508
  -Hartree energ DENC   =   -526517.86331339
  -exchange      EXHF   =         0.00000000
  -V(xc)+E(xc)   XCENC  =      3175.41323669
  PAW double counting   =    169931.99180740  -165510.42754507
  entropy T*S    EENTRO =        -0.04974505
  eigenvalues    EBANDS =     -3435.28252530
  atomic energy  EATOM  =    180675.37932380
  Solvation  Ediel_sol  =         0.00000000
  ---------------------------------------------------
  free energy    TOTEN  =      -808.55532533 eV

  energy without entropy =     -808.50558028  energy(sigma->0) =     -808.53045280


--------------------------------------------------------------------------------------------------------




--------------------------------------- Iteration      1(   5)  ---------------------------------------


     EDDAV:  cpu time  173.1402: real time  173.1868
       DOS:  cpu time    0.0020: real time    0.0020
    --------------------------------------------
      LOOP:  cpu time  173.1421: real time  173.1888

 eigenvalue-minimisations  : 15480
 total energy-change (2. order) :-0.9069567E+00  (-0.9040294E+00)
 number of electron    2182.0000000 magnetization 
 augmentation part     2182.0000000 magnetization 

 DIPCOR: dipole corrections for dipol
 direction  3 min pos   155,
 dipolmoment           0.000000      0.000000     -0.026088 electrons x Angstroem
 Tr[quadrupol]   -157542.663629

 energy correction for charged system         0.000000 eV
 dipol+quadrupol energy correction           -0.000009 eV
 added-field ion interaction         -0.712860 eV  (added to PSCEN)


 Free energy of the ion-electron system (eV)
  ---------------------------------------------------
  alpha Z        PSCENC =      6269.92469052
  Ewald energy   TEWEN  =    334602.35874508
  -Hartree energ DENC   =   -526517.86331339
  -exchange      EXHF   =         0.00000000
  -V(xc)+E(xc)   XCENC  =      3175.41323669
  PAW double counting   =    169931.99180740  -165510.42754507
  entropy T*S    EENTRO =        -0.04981738
  eigenvalues    EBANDS =     -3436.18940965
  atomic energy  EATOM  =    180675.37932380
  Solvation  Ediel_sol  =         0.00000000
  ---------------------------------------------------
  free energy    TOTEN  =      -809.46228200 eV

  energy without entropy =     -809.41246462  energy(sigma->0) =     -809.43737331


--------------------------------------------------------------------------------------------------------




--------------------------------------- Iteration      1(   6)  ---------------------------------------


     EDDAV:  cpu time  193.1418: real time  193.1935
       DOS:  cpu time    0.0019: real time    0.0019
    --------------------------------------------
      LOOP:  cpu time  193.1437: real time  193.1954

 eigenvalue-minimisations  : 17568
 total energy-change (2. order) :-0.5029651E-01  (-0.5026086E-01)
 number of electron    2182.0000000 magnetization 
 augmentation part     2182.0000000 magnetization 

 DIPCOR: dipole corrections for dipol
 direction  3 min pos   155,
 dipolmoment           0.000000      0.000000     -0.026088 electrons x Angstroem
 Tr[quadrupol]   -157542.663629

 energy correction for charged system         0.000000 eV
 dipol+quadrupol energy correction           -0.000009 eV
 added-field ion interaction         -0.712860 eV  (added to PSCEN)


 Free energy of the ion-electron system (eV)
  ---------------------------------------------------
  alpha Z        PSCENC =      6269.92469052
  Ewald energy   TEWEN  =    334602.35874508
  -Hartree energ DENC   =   -526517.86331339
  -exchange      EXHF   =         0.00000000
  -V(xc)+E(xc)   XCENC  =      3175.41323669
  PAW double counting   =    169931.99180740  -165510.42754507
  entropy T*S    EENTRO =        -0.04982575
  eigenvalues    EBANDS =     -3436.23969778
  atomic energy  EATOM  =    180675.37932380
  Solvation  Ediel_sol  =         0.00000000
  ---------------------------------------------------
  free energy    TOTEN  =      -809.51257851 eV

  energy without entropy =     -809.46275276  energy(sigma->0) =     -809.48766563


--------------------------------------------------------------------------------------------------------




--------------------------------------- Iteration      1(   7)  ---------------------------------------


     EDDAV:  cpu time  200.3036: real time  200.3584
[...]
 number of electron    2181.9997688 magnetization 
 augmentation part      776.6439815 magnetization 

 DIPCOR: dipole corrections for dipol
 direction  3 min pos   154,
 dipolmoment           0.000000      0.000000     -0.446665 electrons x Angstroem
 Tr[quadrupol]   -157551.125251

 energy correction for charged system         0.000000 eV
 dipol+quadrupol energy correction           -0.002689 eV
 added-field ion interaction         -9.677902 eV  (added to PSCEN)


 eigenvalues of (default mixing * dielectric matrix)
  average eigenvalue GAMMA=   1.5375
  1.0332  2.0418

  free energy =  -0.742502638874E+03  energy without entropy=  -0.742427107748E+03


--------------------------------------------------------------------------------------------------------




--------------------------------------- Iteration     78(   4)  ---------------------------------------


    POTLOK:  cpu time    0.1739: real time    0.1755
    SETDIJ:  cpu time    0.0176: real time    0.0176
    EDDIAG:  cpu time   27.4617: real time   27.4702
  RMM-DIIS:  cpu time   40.9314: real time   40.9468
    ORTHCH:  cpu time    8.1384: real time    8.1397
       DOS:  cpu time    0.0021: real time    0.0021
    CHARGE:  cpu time    6.9515: real time    6.9560
    MIXING:  cpu time    0.0063: real time    0.0063
    --------------------------------------------
      LOOP:  cpu time   83.6829: real time   83.7141

 eigenvalue-minimisations  :  8342
 total energy-change (2. order) :-0.2006890E-04  (-0.3165395E-05)
 number of electron    2181.9997688 magnetization 
 augmentation part      776.6442148 magnetization 

 DIPCOR: dipole corrections for dipol
 direction  3 min pos   154,
 dipolmoment           0.000000      0.000000     -0.441451 electrons x Angstroem
 Tr[quadrupol]   -157551.129229

 energy correction for charged system         0.000000 eV
 dipol+quadrupol energy correction           -0.002626 eV
 added-field ion interaction         -9.564934 eV  (added to PSCEN)


 eigenvalues of (default mixing * dielectric matrix)
  average eigenvalue GAMMA=   1.2120
  2.3147  1.0471  0.2741

  free energy =  -0.742502658943E+03  energy without entropy=  -0.742427142014E+03


--------------------------------------------------------------------------------------------------------




--------------------------------------- Iteration     78(   5)  ---------------------------------------


    POTLOK:  cpu time    0.1746: real time    0.1754
    SETDIJ:  cpu time    0.0176: real time    0.0175
    EDDIAG:  cpu time   27.4522: real time   27.4621
  RMM-DIIS:  cpu time   37.3178: real time   37.3326
    ORTHCH:  cpu time    8.1002: real time    8.1022
       DOS:  cpu time    0.0018: real time    0.0018
    CHARGE:  cpu time    6.9535: real time    6.9553
    MIXING:  cpu time    0.0066: real time    0.0066
    --------------------------------------------
      LOOP:  cpu time   80.0244: real time   80.0535

 eigenvalue-minimisations  :  7460
 total energy-change (2. order) : 0.2359980E-04  (-0.1363646E-05)
 number of electron    2181.9997688 magnetization 
 augmentation part      776.6441298 magnetization 

 DIPCOR: dipole corrections for dipol
 direction  3 min pos   154,
 dipolmoment           0.000000      0.000000     -0.446049 electrons x Angstroem
 Tr[quadrupol]   -157551.124295

 energy correction for charged system         0.000000 eV
 dipol+quadrupol energy correction           -0.002681 eV
 added-field ion interaction         -9.664555 eV  (added to PSCEN)


 eigenvalues of (default mixing * dielectric matrix)
  average eigenvalue GAMMA=   1.1233
  2.3235  1.0054  0.9153  0.2488

  free energy =  -0.742502635343E+03  energy without entropy=  -0.742427114395E+03


--------------------------------------------------------------------------------------------------------




--------------------------------------- Iteration     78(   6)  ---------------------------------------


    POTLOK:  cpu time    0.1740: real time    0.1755
    SETDIJ:  cpu time    0.0176: real time    0.0176
    EDDIAG:  cpu time   27.4128: real time   27.4194
  RMM-DIIS:  cpu time   35.6997: real time   35.7181
    ORTHCH:  cpu time    8.1171: real time    8.1186
       DOS:  cpu time    0.0020: real time    0.0020
    --------------------------------------------
      LOOP:  cpu time   71.4231: real time   71.4512

 eigenvalue-minimisations  :  7075
 total energy-change (2. order) : 0.9906944E-07  (-0.1843699E-06)
 number of electron    2181.9997688 magnetization 
 augmentation part      776.6441298 magnetization 

 DIPCOR: dipole corrections for dipol
 direction  3 min pos   154,
 dipolmoment           0.000000      0.000000     -0.445768 electrons x Angstroem
 Tr[quadrupol]   -157551.125407

 energy correction for charged system         0.000000 eV
 dipol+quadrupol energy correction           -0.002678 eV
 added-field ion interaction         -9.658462 eV  (added to PSCEN)


  free energy =  -0.742502635244E+03  energy without entropy=  -0.742427109043E+03


--------------------------------------------------------------------------------------------------------




------------------------ aborting loop because EDIFF is reached ----------------------------------------


    CHARGE:  cpu time    6.9729: real time    6.9742
    FORLOC:  cpu time    0.2030: real time    0.2030
    FORNL :  cpu time   25.9318: real time   25.9387
    STRESS:  cpu time   77.6152: real time   77.6397
    FORCOR:  cpu time    0.3484: real time    0.3484
    FORHAR:  cpu time    0.2387: real time    0.2387
    MIXING:  cpu time    0.0066: real time    0.0066
    OFIELD:  cpu time    0.0001: real time    0.0001

  Number of pair interactions contributing to vdW energy:  868530
  Edisp (eV):  -17.60930
    FORVDW:  cpu time    0.1258: real time    0.1259

  FORCE on cell =-STRESS in cart. coord.  units (eV):
  Direction    XX          YY          ZZ          XY          YZ          ZX
  --------------------------------------------------------------------------------------
  Alpha Z  6270.63756  6270.63756  6270.63756
  Ewald  453664.66046453573.68554************  1383.97346   133.39193    19.00353
  Hartree503418.38350503379.46651************  1258.55033   104.89219    24.66236
  E(xc)   -9754.90111 -9755.15870 -9798.18790     0.08464     0.11877    -0.05266
  Local  ************************************ -2650.23645  -235.15778   -43.47747
  n-local  -442.54188  -440.18136  -320.71108     2.67361     0.18742     0.33983
  augment 12997.27083 12997.62065 13077.93998     0.13559    -0.08249    -0.10998
  Kinetic 30429.03588 30432.47826 30840.30658     4.87564    -3.52748    -0.21553
  Fock        0.00000     0.00000     0.00000     0.00000     0.00000     0.00000
  vdW       -23.99458   -23.96257   -18.97043    -0.14658     0.01718    -0.02194
  -------------------------------------------------------------------------------------
  Total    -123.73649  -123.14307    -2.28276    -0.08975    -0.16026     0.12814
  in kB     -27.61036   -27.47795    -0.50937    -0.02003    -0.03576     0.02859
  external pressure =      -18.53 kB  Pullay stress =        0.00 kB



--------------------------------------------------------------------------------------------------------



  FREE ENERGIE OF THE ION-ELECTRON SYSTEM (eV)
  ---------------------------------------------------
  free  energy   TOTEN  =      -760.11193979 eV

  energy  without entropy=     -760.03641358  energy(sigma->0) =     -760.07417668
 
 d Force = 0.8948264E-04[ 0.203E-04, 0.159E-03]  d Energy = 0.1255638E-03-0.361E-04
 d Force = 0.1077845E+02[ 0.108E+02, 0.108E+02]  d Ewald  = 0.1077844E+02 0.158E-05


--------------------------------------------------------------------------------------------------------


    POTLOK:  cpu time    0.1987: real time    0.1987


--------------------------------------------------------------------------------------------------------




--------------------------------------------------------------------------------------------------------


    WAVPRE:  cpu time    0.1710: real time    0.1733
    FEWALD:  cpu time    0.0085: real time    0.0085

 real space projection operators:
  total allocation   :      57333.62 KBytes
  max/ min on nodes  :      14338.44      14329.71

    ORTHCH:  cpu time   16.6878: real time   16.6934
     LOOP+:  cpu time  716.5069: real time  716.7688


--------------------------------------- Iteration     79(   1)  ---------------------------------------


    POTLOK:  cpu time    0.1776: real time    0.1779
    SETDIJ:  cpu time    0.0176: real time    0.0176
     EDDAV:  cpu time  153.3715: real time  153.4193
       DOS:  cpu time    0.0020: real time    0.0020
    CHARGE:  cpu time    6.9685: real time    6.9703
    MIXING:  cpu time    0.0055: real time    0.0055
    --------------------------------------------
      LOOP:  cpu time  160.5427: real time  160.5926

 eigenvalue-minimisations  : 13224
 total energy-change (2. order) :-0.1961786E-03  (-0.2364200E-02)
 number of electron    2181.9997687 magnetization 
 augmentation part      776.6442501 magnetization 

 DIPCOR: dipole corrections for dipol
 direction  3 min pos   154,
 dipolmoment           0.000000      0.000000     -0.445819 electrons x Angstroem
 Tr[quadrupol]   -157552.187581

 energy correction for charged system         0.000000 eV
 dipol+quadrupol energy correction           -0.002678 eV
 added-field ion interaction         -9.659046 eV  (added to PSCEN)


  free energy =  -0.742502831521E+03  energy without entropy=  -0.742427293605E+03


--------------------------------------------------------------------------------------------------------




--------------------------------------- Iteration     79(   2)  ---------------------------------------


    POTLOK:  cpu time    0.1740: real time    0.1743
    SETDIJ:  cpu time    0.0177: real time    0.0177
    EDDIAG:  cpu time   27.3993: real time   27.4064
  RMM-DIIS:  cpu time   62.4618: real time   62.4874
    ORTHCH:  cpu time    8.1015: real time    8.1079
       DOS:  cpu time    0.0021: real time    0.0021
    CHARGE:  cpu time    6.9575: real time    6.9592
    MIXING:  cpu time    0.0058: real time    0.0058
    --------------------------------------------
      LOOP:  cpu time  105.1197: real time  105.1607

 eigenvalue-minimisations  : 13364
 total energy-change (2. order) :-0.3787508E-04  (-0.4417617E-04)
 number of electron    2181.9997687 magnetization 
 augmentation part      776.6438887 magnetization 

 DIPCOR: dipole corrections for dipol
 direction  3 min pos   154,
 dipolmoment           0.000000      0.000000     -0.445517 electrons x Angstroem
 Tr[quadrupol]   -157552.186160

 energy correction for charged system         0.000000 eV
 dipol+quadrupol energy correction           -0.002675 eV
 added-field ion interaction         -9.652492 eV  (added to PSCEN)


 eigenvalues of (default mixing * dielectric matrix)
  average eigenvalue GAMMA=   0.9514
  0.9514

  free energy =  -0.742502869396E+03  energy without entropy=  -0.742427334558E+03


--------------------------------------------------------------------------------------------------------




--------------------------------------- Iteration     79(   3)  ---------------------------------------


    POTLOK:  cpu time    0.1738: real time    0.1752
    SETDIJ:  cpu time    0.0182: real time    0.0182
    EDDIAG:  cpu time   27.4278: real time   27.4419
  RMM-DIIS:  cpu time   37.2214: real time   37.2409
    ORTHCH:  cpu time    8.1157: real time    8.1172
       DOS:  cpu time    0.0021: real time    0.0021
    CHARGE:  cpu time    6.9646: real time    6.9665
    MIXING:  cpu time    0.0065: real time    0.0065
    --------------------------------------------
      LOOP:  cpu time   79.9300: real time   79.9685

 eigenvalue-minimisations  :  7465
 total energy-change (2. order) : 0.4357949E-05  (-0.1525737E-05)
 number of electron    2181.9997687 magnetization 
 augmentation part      776.6438859 magnetization 

 DIPCOR: dipole corrections for dipol
 direction  3 min pos   154,
 dipolmoment           0.000000      0.000000     -0.446096 electrons x Angstroem
 Tr[quadrupol]   -157552.185260

 energy correction for charged system         0.000000 eV
 dipol+quadrupol energy correction           -0.002682 eV
 added-field ion interaction         -9.665048 eV  (added to PSCEN)


 eigenvalues of (default mixing * dielectric matrix)
  average eigenvalue GAMMA=   1.4197
  0.9970  1.8423

  free energy =  -0.742502865038E+03  energy without entropy=  -0.742427323789E+03


--------------------------------------------------------------------------------------------------------




--------------------------------------- Iteration     79(   4)  ---------------------------------------


    POTLOK:  cpu time    0.1738: real time    0.1753
    SETDIJ:  cpu time    0.0182: real time    0.0182
    EDDIAG:  cpu time   27.4604: real time   27.4697
  RMM-DIIS:  cpu time   37.0160: real time   37.0331
    ORTHCH:  cpu time    8.1077: real time    8.1103
       DOS:  cpu time    0.0020: real time    0.0020
    CHARGE:  cpu time    6.9611: real time    6.9632
    MIXING:  cpu time    0.0062: real time    0.0062
    --------------------------------------------
      LOOP:  cpu time   79.7453: real time   79.7779

 eigenvalue-minimisations  :  7472
 total energy-change (2. order) :-0.5933980E-05  (-0.9316308E-06)
 number of electron    2181.9997687 magnetization 
 augmentation part      776.6440277 magnetization 

 DIPCOR: dipole corrections for dipol
 direction  3 min pos   154,
 dipolmoment           0.000000      0.000000     -0.443093 electrons x Angstroem
 Tr[quadrupol]   -157552.186742

 energy correction for charged system         0.000000 eV
 dipol+quadrupol energy correction           -0.002646 eV
 added-field ion interaction         -9.599978 eV  (added to PSCEN)


 eigenvalues of (default mixing * dielectric matrix)
  average eigenvalue GAMMA=   1.1472
  2.1603  0.9980  0.2832

  free energy =  -0.742502870972E+03  energy without entropy=  -0.742427336003E+03


--------------------------------------------------------------------------------------------------------




--------------------------------------- Iteration     79(   5)  ---------------------------------------


    POTLOK:  cpu time    0.1787: real time    0.1788
    SETDIJ:  cpu time    0.0179: real time    0.0179
    EDDIAG:  cpu time   27.4351: real time   27.4525
  RMM-DIIS:  cpu time   36.3535: real time   36.3656
    ORTHCH:  cpu time    8.1139: real time    8.1173
       DOS:  cpu time    0.0020: real time    0.0020
    --------------------------------------------
      LOOP:  cpu time   72.1011: real time   72.1341

 eigenvalue-minimisations  :  7228
 total energy-change (2. order) : 0.7373717E-05  (-0.4187393E-06)
 number of electron    2181.9997687 magnetization 
 augmentation part      776.6440277 magnetization 

 DIPCOR: dipole corrections for dipol
 direction  3 min pos   154,
 dipolmoment           0.000000      0.000000     -0.445575 electrons x Angstroem
 Tr[quadrupol]   -157552.183480

 energy correction for charged system         0.000000 eV
 dipol+quadrupol energy correction           -0.002676 eV
 added-field ion interaction         -9.653763 eV  (added to PSCEN)


  free energy =  -0.742502863599E+03  energy without entropy=  -0.742427326620E+03


--------------------------------------------------------------------------------------------------------




------------------------ aborting loop because EDIFF is reached ----------------------------------------


    CHARGE:  cpu time    6.9665: real time    6.9683
    FORLOC:  cpu time    0.2039: real time    0.2040
    FORNL :  cpu time   25.9134: real time   25.9245
    STRESS:  cpu time   77.4747: real time   77.5150
    FORCOR:  cpu time    0.3472: real time    0.3473
    FORHAR:  cpu time    0.2388: real time    0.2390
    MIXING:  cpu time    0.0063: real time    0.0063
    OFIELD:  cpu time    0.0001: real time    0.0001

  Number of pair interactions contributing to vdW energy:  868524
  Edisp (eV):  -17.60917
    FORVDW:  cpu time    0.1258: real time    0.1258

  FORCE on cell =-STRESS in cart. coord.  units (eV):
  Direction    XX          YY          ZZ          XY          YZ          ZX
  --------------------------------------------------------------------------------------
  Alpha Z  6270.63756  6270.63756  6270.63756
  Ewald  453657.47959453567.13458************  1384.44202   133.44116    19.20102
  Hartree503411.50532503372.86061************  1258.73384   104.95083    24.80267
  E(xc)   -9754.89391 -9755.15032 -9798.18069     0.08554     0.11884    -0.05244
  Local  ************************************ -2650.82901  -235.26952   -43.80884
  n-local  -442.54645  -440.18882  -320.72190     2.66999     0.18691     0.33427
  augment 12997.27141 12997.61960 13077.94503     0.13471    -0.08264    -0.11106
  Kinetic 30429.01388 30432.42011 30840.29068     4.84590    -3.52970    -0.22113
  Fock        0.00000     0.00000     0.00000     0.00000     0.00000     0.00000
  vdW       -23.99431   -23.96264   -18.97011    -0.14668     0.01723    -0.02200
  -------------------------------------------------------------------------------------
  Total    -123.79578  -123.16731    -2.30541    -0.06369    -0.16689     0.12249
  in kB     -27.62359   -27.48335    -0.51443    -0.01421    -0.03724     0.02733
  external pressure =      -18.54 kB  Pullay stress =        0.00 kB



--------------------------------------------------------------------------------------------------------



  FREE ENERGIE OF THE ION-ELECTRON SYSTEM (eV)
  ---------------------------------------------------
  free  energy   TOTEN  =      -760.11203659 eV

  energy  without entropy=     -760.03649962  energy(sigma->0) =     -760.07426811
 
 d Force = 0.8010885E-04[ 0.316E-04, 0.129E-03]  d Energy = 0.9680983E-04-0.167E-04
 d Force = 0.5837144E+01[ 0.584E+01, 0.584E+01]  d Ewald  = 0.5837144E+01-0.126E-07


--------------------------------------------------------------------------------------------------------


    POTLOK:  cpu time    0.1976: real time    0.1976


--------------------------------------------------------------------------------------------------------


 Conjugate gradient step on ions:
 trial-energy change:   -0.000097  1 .order   -0.000080   -0.000129   -0.000032
  (g-gl).g = 0.955E-04      g.g   = 0.133E-03  gl.gl    = 0.127E-03
 g(Force)  = 0.133E-03   g(Stress)= 0.000E+00 ortho     = 0.119E-04
 gamma     =   0.75217
 trial     =   0.90498
 opt step  =   1.20032  (harmonic =   1.20032) maximal distance =0.00109005
 next E    =  -760.112025   (d E  =  -0.00009)


--------------------------------------------------------------------------------------------------------


  
 reached required accuracy - stopping structural energy minimisation
     LOOP+:  cpu time  608.9531: real time  609.2034
    4ORBIT:  cpu time    0.0000: real time    0.0000

 total amount of memory used by VASP MPI-rank0   455982. kBytes
=======================================================================

   base      :      30000. kBytes
   nonlr-proj:      25556. kBytes
   fftplans  :      17430. kBytes
   grid      :      31444. kBytes
   one-center:        855. kBytes
   wavefun   :     350697. kBytes
 
  
  
 General timing and accounting informations for this job:
 ========================================================
  
                  Total CPU time used (sec):    57698.375
                            User time (sec):    55773.181
                          System time (sec):     1925.196
                         Elapsed time (sec):    57779.403
  
                   Maximum memory used (kb):      652616.
                   Average memory used (kb):           0.
  
                          Minor page faults:       342918
                          Major page faults:            0
                 Voluntary context switches:         6595
