 vasp.5.4.4.18Apr17-6-g9f103f2a35 (build Jun 30 2017 19:19:18) complex          
  
 executed on         MareNostrum4 date 2022.04.19  22:26:13
 running on   48 total cores
 distrk:  each k-point on   48 cores,    1 groups
 distr:  one band on NCORES_PER_BAND=   1 cores,   48 groups


--------------------------------------------------------------------------------------------------------


 INCAR:
 POTCAR:    PAW_PBE Ru 04Feb2005                  

 ----------------------------------------------------------------------------- 
|                                                                             |
|           W    W    AA    RRRRR   N    N  II  N    N   GGGG   !!!           |
|           W    W   A  A   R    R  NN   N  II  NN   N  G    G  !!!           |
|           W    W  A    A  R    R  N N  N  II  N N  N  G       !!!           |
|           W WW W  AAAAAA  RRRRR   N  N N  II  N  N N  G  GGG   !            |
|           WW  WW  A    A  R   R   N   NN  II  N   NN  G    G                |
|           W    W  A    A  R    R  N    N  II  N    N   GGGG   !!!           |
|                                                                             |
|      For optimal performance we recommend to set                            |
|        NCORE= 4 - approx SQRT( number of cores)                             |
|      NCORE specifies how many cores store one orbital (NPAR=cpu/NCORE).     |
|      This setting can  greatly improve the performance of VASP for DFT.     |
|      The default,   NCORE=1            might be grossly inefficient         |
|      on modern multi-core architectures or massively parallel machines.     |
|      Do your own testing !!!!                                               |
|      Unfortunately you need to use the default for GW and RPA calculations. |
|      (for HF NCORE is supported but not extensively tested yet)             |
|                                                                             |
 ----------------------------------------------------------------------------- 

 POTCAR:    PAW_PBE Ru 04Feb2005                  
  local pseudopotential read in
  partial core-charges read in
  partial kinetic energy density read in
  atomic valenz-charges read in
  non local Contribution for L=           2  read in
    real space projection operators read in
  non local Contribution for L=           2  read in
    real space projection operators read in
  non local Contribution for L=           0  read in
    real space projection operators read in
  non local Contribution for L=           0  read in
    real space projection operators read in
  non local Contribution for L=           1  read in
    real space projection operators read in
  non local Contribution for L=           1  read in
    real space projection operators read in
    PAW grid and wavefunctions read in
 
   number of l-projection  operators is LMAX  =           6
   number of lm-projection operators is LMMAX =          18
 
 Optimization of the real space projectors (new method)

 maximal supplied QI-value         = 13.98
 optimisation between [QCUT,QGAM] = [ 10.77, 21.68] = [ 32.47,131.56] Ry 
 Optimized for a Real-space Cutoff    1.51 Angstroem

   l    n(q)    QCUT    max X(q) W(low)/X(q) W(high)/X(q)  e(spline) 
   2      9    10.768    61.733    0.26E-03    0.97E-04    0.28E-06
   2      9    10.768    59.886    0.26E-03    0.10E-03    0.29E-06
   0     10    10.768    23.358    0.12E-03    0.28E-03    0.38E-06
   0     10    10.768    11.320    0.93E-04    0.23E-03    0.31E-06
   1      9    10.768    14.765    0.48E-03    0.21E-03    0.19E-06
   1      9    10.768     8.283    0.36E-03    0.16E-03    0.15E-06
  PAW_PBE Ru 04Feb2005                  :
 energy of atom  1       EATOM= -454.8837
 kinetic energy error for atom=    0.0028 (will be added to EATOM!!)
 
 
 POSCAR: Ru                                      
  positions in cartesian coordinates
  No initial velocities read in
 exchange correlation table for  LEXCH =        8
   RHO(1)=    0.500       N(1)  =     2000
   RHO(2)=  100.500       N(2)  =     4000
 


--------------------------------------------------------------------------------------------------------


 ion  position               nearest neighbor table
   1  0.048  0.167  0.200-  30 2.66  53 2.66  29 2.66   4 2.71   2 2.71  28 2.71   6 2.71   5 2.71
                            25 2.71
   2  0.048  0.417  0.200-  31 2.66  54 2.66  30 2.66   3 2.71   1 2.71  25 2.71   7 2.71  26 2.71
                             6 2.71
   3  0.048  0.667  0.200-  32 2.66  55 2.66  31 2.66   4 2.71   2 2.71  26 2.71   8 2.71  27 2.71
                             7 2.71
   4  0.048  0.917  0.200-  29 2.66  56 2.66  32 2.66   3 2.71   1 2.71  27 2.71   5 2.71  28 2.71
                             8 2.71
   5  0.190  0.167  0.200-  34 2.66  29 2.66  33 2.66  10 2.71   6 2.71   8 2.71   4 2.71   9 2.71
                             1 2.71
   6  0.190  0.417  0.200-  35 2.66  30 2.66  34 2.66  11 2.71   5 2.71   7 2.71   1 2.71  10 2.71
                             2 2.71
   7  0.190  0.667  0.200-  36 2.66  31 2.66  35 2.66  12 2.71   6 2.71   8 2.71   2 2.71  11 2.71
                             3 2.71
   8  0.190  0.917  0.200-  33 2.66  32 2.66  36 2.66   9 2.71   5 2.71   7 2.71   3 2.71  12 2.71
                             4 2.71
   9  0.333  0.167  0.200-  38 2.66  33 2.66  37 2.66   8 2.71  12 2.71  10 2.71  14 2.71   5 2.71
                            13 2.71
  10  0.333  0.417  0.200-  39 2.66  34 2.66  38 2.66   5 2.71  11 2.71   9 2.71  15 2.71   6 2.71
                            14 2.71
  11  0.333  0.667  0.200-  40 2.66  35 2.66  39 2.66   6 2.71  12 2.71  10 2.71  16 2.71   7 2.71
                            15 2.71
  12  0.333  0.917  0.200-  37 2.66  36 2.66  40 2.66   7 2.71  11 2.71   9 2.71  13 2.71   8 2.71
                            16 2.71
  13  0.476  0.167  0.200-  42 2.66  37 2.66  41 2.66  18 2.71  14 2.71  16 2.71  12 2.71  17 2.71
                             9 2.71
  14  0.476  0.417  0.200-  43 2.66  38 2.66  42 2.66  19 2.71  13 2.71  15 2.71   9 2.71  18 2.71
                            10 2.71
  15  0.476  0.667  0.200-  44 2.66  39 2.66  43 2.66  20 2.71  14 2.71  16 2.71  10 2.71  19 2.71
                            11 2.71
  16  0.476  0.917  0.200-  41 2.66  40 2.66  44 2.66  17 2.71  13 2.71  15 2.71  11 2.71  20 2.71
                            12 2.71
  17  0.619  0.167  0.200-  46 2.66  41 2.66  45 2.66  16 2.71  20 2.71  18 2.71  22 2.71  13 2.71
                            21 2.71
  18  0.619  0.417  0.200-  47 2.66  42 2.66  46 2.66  13 2.71  19 2.71  17 2.71  23 2.71  14 2.71
                            22 2.71
  19  0.619  0.667  0.200-  48 2.66  43 2.66  47 2.66  14 2.71  20 2.71  18 2.71  24 2.71  15 2.71
                            23 2.71
  20  0.619  0.917  0.200-  45 2.66  44 2.66  48 2.66  15 2.71  19 2.71  17 2.71  21 2.71  16 2.71
                            24 2.71
  21  0.762  0.167  0.200-  50 2.66  45 2.66  49 2.66  26 2.71  22 2.71  24 2.71  20 2.71  25 2.71
                            17 2.71
  22  0.762  0.417  0.200-  51 2.66  46 2.66  50 2.66  27 2.71  21 2.71  23 2.71  17 2.71  26 2.71
                            18 2.71
  23  0.762  0.667  0.200-  52 2.66  47 2.66  51 2.66  28 2.71  22 2.71  24 2.71  18 2.71  27 2.71
                            19 2.71
  24  0.762  0.917  0.200-  49 2.66  48 2.66  52 2.66  25 2.71  21 2.71  23 2.71  19 2.71  28 2.71
                            20 2.71
  25  0.905  0.167  0.200-  54 2.66  49 2.66  53 2.66  24 2.71  28 2.71  26 2.71   2 2.71  21 2.71
                             1 2.71
  26  0.905  0.417  0.200-  55 2.66  50 2.66  54 2.66  21 2.71  27 2.71  25 2.71   3 2.71  22 2.71
                             2 2.71
  27  0.905  0.667  0.200-  56 2.66  51 2.66  55 2.66  22 2.71  28 2.71  26 2.71   4 2.71  23 2.71
                             3 2.71
  28  0.905  0.917  0.200-  53 2.66  52 2.66  56 2.66  23 2.71  27 2.71  25 2.71   1 2.71  24 2.71
                             4 2.71
  29  0.095  0.083  0.100-   4 2.66   5 2.66   1 2.66  60 2.66  61 2.66  57 2.66  56 2.71  30 2.71
                            32 2.71  34 2.71  53 2.71  33 2.71
  30  0.095  0.333  0.100-   1 2.66   6 2.66   2 2.66  57 2.66  62 2.66  58 2.66  53 2.71  29 2.71
                            31 2.71  35 2.71  54 2.71  34 2.71
  31  0.095  0.583  0.100-   2 2.66   7 2.66   3 2.66  58 2.66  63 2.66  59 2.66  54 2.71  30 2.71
                            32 2.71  36 2.71  55 2.71  35 2.71
  32  0.095  0.833  0.100-   3 2.66   8 2.66   4 2.66  59 2.66  64 2.66  60 2.66  55 2.71  29 2.71
                            31 2.71  33 2.71  56 2.71  36 2.71
  33  0.238  0.083  0.100-   8 2.66   9 2.66   5 2.66  64 2.66  65 2.66  61 2.66  38 2.71  34 2.71
                            36 2.71  32 2.71  37 2.71  29 2.71
  34  0.238  0.333  0.100-   5 2.66  10 2.66   6 2.66  61 2.66  66 2.66  62 2.66  39 2.71  33 2.71
                            35 2.71  29 2.71  38 2.71  30 2.71
  35  0.238  0.583  0.100-   6 2.66  11 2.66   7 2.66  62 2.66  67 2.66  63 2.66  40 2.71  34 2.71
                            36 2.71  30 2.71  39 2.71  31 2.71
  36  0.238  0.833  0.100-   7 2.66  12 2.66   8 2.66  63 2.66  68 2.66  64 2.66  37 2.71  33 2.71
                            35 2.71  31 2.71  40 2.71  32 2.71
  37  0.381  0.083  0.100-  12 2.66  13 2.66   9 2.66  68 2.66  69 2.66  65 2.66  36 2.71  40 2.71
                            38 2.71  42 2.71  33 2.71  41 2.71
  38  0.381  0.333  0.100-   9 2.66  14 2.66  10 2.66  65 2.66  70 2.66  66 2.66  33 2.71  39 2.71
                            37 2.71  43 2.71  34 2.71  42 2.71
  39  0.381  0.583  0.100-  10 2.66  15 2.66  11 2.66  66 2.66  71 2.66  67 2.66  34 2.71  40 2.71
                            38 2.71  44 2.71  35 2.71  43 2.71
  40  0.381  0.833  0.100-  11 2.66  16 2.66  12 2.66  67 2.66  72 2.66  68 2.66  35 2.71  39 2.71
                            37 2.71  41 2.71  36 2.71  44 2.71
  41  0.524  0.083  0.100-  16 2.66  17 2.66  13 2.66  72 2.66  73 2.66  69 2.66  46 2.71  42 2.71
                            44 2.71  40 2.71  45 2.71  37 2.71
  42  0.524  0.333  0.100-  13 2.66  18 2.66  14 2.66  69 2.66  74 2.66  70 2.66  47 2.71  41 2.71
                            43 2.71  37 2.71  46 2.71  38 2.71
  43  0.524  0.583  0.100-  14 2.66  19 2.66  15 2.66  70 2.66  75 2.66  71 2.66  48 2.71  42 2.71
                            44 2.71  38 2.71  47 2.71  39 2.71
  44  0.524  0.833  0.100-  15 2.66  20 2.66  16 2.66  71 2.66  76 2.66  72 2.66  45 2.71  41 2.71
                            43 2.71  39 2.71  48 2.71  40 2.71
  45  0.667  0.083  0.100-  20 2.66  21 2.66  17 2.66  76 2.66  77 2.66  73 2.66  44 2.71  48 2.71
                            46 2.71  50 2.71  41 2.71  49 2.71
  46  0.667  0.333  0.100-  17 2.66  22 2.66  18 2.66  73 2.66  78 2.66  74 2.66  41 2.71  47 2.71
                            45 2.71  51 2.71  42 2.71  50 2.71
  47  0.667  0.583  0.100-  18 2.66  23 2.66  19 2.66  74 2.66  79 2.66  75 2.66  42 2.71  48 2.71
                            46 2.71  52 2.71  43 2.71  51 2.71
  48  0.667  0.833  0.100-  19 2.66  24 2.66  20 2.66  75 2.66  80 2.66  76 2.66  43 2.71  47 2.71
                            45 2.71  49 2.71  44 2.71  52 2.71
  49  0.810  0.083  0.100-  24 2.66  25 2.66  21 2.66  80 2.66  81 2.66  77 2.66  52 2.71  50 2.71
                            54 2.71  48 2.71  45 2.71  53 2.71
  50  0.810  0.333  0.100-  21 2.66  26 2.66  22 2.66  77 2.66  82 2.66  78 2.66  51 2.71  49 2.71
                            55 2.71  45 2.71  46 2.71  54 2.71
  51  0.810  0.583  0.100-  22 2.66  27 2.66  23 2.66  78 2.66  83 2.66  79 2.66  52 2.71  50 2.71
                            56 2.71  46 2.71  47 2.71  55 2.71
  52  0.810  0.833  0.100-  23 2.66  28 2.66  24 2.66  79 2.66  84 2.66  80 2.66  51 2.71  49 2.71
                            53 2.71  47 2.71  56 2.71  48 2.71
  53  0.952  0.083  0.100-  28 2.66   1 2.66  25 2.66  84 2.66  57 2.66  81 2.66  30 2.71  56 2.71
                            54 2.71  52 2.71  29 2.71  49 2.71
  54  0.952  0.333  0.100-  25 2.66   2 2.66  26 2.66  81 2.66  58 2.66  82 2.66  31 2.71  55 2.71
                            53 2.71  49 2.71  30 2.71  50 2.71
  55  0.952  0.583  0.100-  26 2.66   3 2.66  27 2.66  82 2.66  59 2.66  83 2.66  32 2.71  56 2.71
                            54 2.71  50 2.71  31 2.71  51 2.71
  56  0.952  0.833  0.100-  27 2.66   4 2.66  28 2.66  83 2.66  60 2.66  84 2.66  29 2.71  55 2.71
                            53 2.71  51 2.71  32 2.71  52 2.71
  57  0.048  0.167  0.000-  30 2.66  53 2.66  29 2.66  58 2.71  60 2.71  62 2.71  84 2.71  81 2.71
                            61 2.71
  58  0.048  0.417  0.000-  31 2.66  54 2.66  30 2.66  57 2.71  59 2.71  63 2.71  81 2.71  62 2.71
                            82 2.71
  59  0.048  0.667  0.000-  32 2.66  55 2.66  31 2.66  58 2.71  60 2.71  64 2.71  82 2.71  63 2.71
                            83 2.71
  60  0.048  0.917  0.000-  29 2.66  56 2.66  32 2.66  57 2.71  59 2.71  61 2.71  83 2.71  64 2.71
                            84 2.71
  61  0.190  0.167  0.000-  34 2.66  29 2.66  33 2.66  66 2.71  64 2.71  62 2.71  60 2.71  65 2.71
                            57 2.71
  62  0.190  0.417  0.000-  35 2.66  30 2.66  34 2.66  67 2.71  63 2.71  61 2.71  57 2.71  66 2.71
                            58 2.71
  63  0.190  0.667  0.000-  36 2.66  31 2.66  35 2.66  68 2.71  64 2.71  62 2.71  58 2.71  67 2.71
                            59 2.71
  64  0.190  0.917  0.000-  33 2.66  32 2.66  36 2.66  65 2.71  63 2.71  61 2.71  59 2.71  68 2.71
                            60 2.71
  65  0.333  0.167  0.000-  38 2.66  33 2.66  37 2.66  64 2.71  66 2.71  68 2.71  70 2.71  61 2.71
                            69 2.71
  66  0.333  0.417  0.000-  39 2.66  34 2.66  38 2.66  61 2.71  65 2.71  67 2.71  71 2.71  62 2.71
                            70 2.71
  67  0.333  0.667  0.000-  40 2.66  35 2.66  39 2.66  62 2.71  66 2.71  68 2.71  72 2.71  63 2.71
                            71 2.71
  68  0.333  0.917  0.000-  37 2.66  36 2.66  40 2.66  63 2.71  65 2.71  67 2.71  69 2.71  64 2.71
                            72 2.71
  69  0.476  0.167  0.000-  42 2.66  37 2.66  41 2.66  74 2.71  72 2.71  70 2.71  68 2.71  73 2.71
                            65 2.71
  70  0.476  0.417  0.000-  43 2.66  38 2.66  42 2.66  75 2.71  71 2.71  69 2.71  65 2.71  74 2.71
                            66 2.71
  71  0.476  0.667  0.000-  44 2.66  39 2.66  43 2.66  76 2.71  72 2.71  70 2.71  66 2.71  75 2.71
                            67 2.71
  72  0.476  0.917  0.000-  41 2.66  40 2.66  44 2.66  73 2.71  71 2.71  69 2.71  67 2.71  76 2.71
                            68 2.71
  73  0.619  0.167  0.000-  46 2.66  41 2.66  45 2.66  72 2.71  74 2.71  76 2.71  78 2.71  69 2.71
                            77 2.71
  74  0.619  0.417  0.000-  47 2.66  42 2.66  46 2.66  69 2.71  73 2.71  75 2.71  79 2.71  70 2.71
                            78 2.71
  75  0.619  0.667  0.000-  48 2.66  43 2.66  47 2.66  70 2.71  74 2.71  76 2.71  80 2.71  71 2.71
                            79 2.71
  76  0.619  0.917  0.000-  45 2.66  44 2.66  48 2.66  71 2.71  73 2.71  75 2.71  77 2.71  72 2.71
                            80 2.71
  77  0.762  0.167  0.000-  50 2.66  45 2.66  49 2.66  82 2.71  80 2.71  78 2.71  76 2.71  81 2.71
                            73 2.71
  78  0.762  0.417  0.000-  51 2.66  46 2.66  50 2.66  83 2.71  79 2.71  77 2.71  73 2.71  82 2.71
                            74 2.71
  79  0.762  0.667  0.000-  52 2.66  47 2.66  51 2.66  84 2.71  80 2.71  78 2.71  74 2.71  83 2.71
                            75 2.71
  80  0.762  0.917  0.000-  49 2.66  48 2.66  52 2.66  81 2.71  79 2.71  77 2.71  75 2.71  84 2.71
                            76 2.71
  81  0.905  0.167  0.000-  54 2.66  49 2.66  53 2.66  80 2.71  82 2.71  84 2.71  58 2.71  77 2.71
                            57 2.71
  82  0.905  0.417  0.000-  55 2.66  50 2.66  54 2.66  77 2.71  81 2.71  83 2.71  59 2.71  78 2.71
                            58 2.71
  83  0.905  0.667  0.000-  56 2.66  51 2.66  55 2.66  78 2.71  82 2.71  84 2.71  60 2.71  79 2.71
                            59 2.71
  84  0.905  0.917  0.000-  53 2.66  52 2.66  56 2.66  79 2.71  81 2.71  83 2.71  57 2.71  80 2.71
                            60 2.71
 
  Warning from LATTYP: Monoclinic adjustement (A1->A3, A2->A1, A3->A2)!
  Warning from LATTYP: Got some problem with cell dimensions!
  Tried to take original basis but could not verify dimensions!
  LATTYP: Found a simple monoclinic cell.
 ALAT       =    20.4796808342
 B/A-ratio  =     1.0467134775
 C/A-ratio  =     1.7371079010
 COS(beta)  =    -0.9695485959
  
  Lattice vectors:
  
 A1 = (  -8.1377999784, -18.7934440320,   0.0000000000)
 A2 = (   0.0000000000,   0.0000000000, -21.4363579450)
 A3 = (  21.7007999424,  28.1901660480,   0.0000000000)


Analysis of symmetry for initial positions (statically):
=====================================================================
 Subroutine PRICEL returns following result:
 
  LATTYP: Found a hexagonal cell.
 ALAT       =     2.7125999927
 C/A-ratio  =     7.9025134566
  
  Lattice vectors:
  
 A1 = (   2.7125999928,   0.0000000000,   0.0000000000)
 A2 = (  -1.3562999964,   2.3491805040,   0.0000000000)
 A3 = (   0.0000000000,   0.0000000000,  21.4363579450)
 
  28 primitive cells build up your supercell.
 

 Routine SETGRP: Setting up the symmetry group for a 
 simple monoclinic supercell.


 Subroutine GETGRP returns: Found  1 space group operations
 (whereof  1 operations were pure point group operations)
 out of a pool of  4 trial point group operations.


The static configuration has the point symmetry C_1 .


Analysis of symmetry for dynamics (positions and initial velocities):
=====================================================================
 Subroutine PRICEL returns following result:
 
  LATTYP: Found a hexagonal cell.
 ALAT       =     2.7125999927
 C/A-ratio  =     7.9025134566
  
  Lattice vectors:
  
 A1 = (   2.7125999928,   0.0000000000,   0.0000000000)
 A2 = (  -1.3562999964,   2.3491805040,   0.0000000000)
 A3 = (   0.0000000000,   0.0000000000,  21.4363579450)
 
  28 primitive cells build up your supercell.
 

 Routine SETGRP: Setting up the symmetry group for a 
 simple monoclinic supercell.


 Subroutine GETGRP returns: Found  1 space group operations
 (whereof  1 operations were pure point group operations)
 out of a pool of  4 trial point group operations.


The dynamic configuration has the point symmetry C_1 .


Analysis of constrained symmetry for selective dynamics:
=====================================================================
 Subroutine PRICEL returns following result:
 
  LATTYP: Found a hexagonal cell.
 ALAT       =     2.7125999927
 C/A-ratio  =     7.9025134566
  
  Lattice vectors:
  
 A1 = (   2.7125999928,   0.0000000000,   0.0000000000)
 A2 = (  -1.3562999964,   2.3491805040,   0.0000000000)
 A3 = (   0.0000000000,   0.0000000000,  21.4363579450)
 
  28 primitive cells build up your supercell.
 

 Routine SETGRP: Setting up the symmetry group for a 
 simple monoclinic supercell.


 Subroutine GETGRP returns: Found  1 space group operations
 (whereof  1 operations were pure point group operations)
 out of a pool of  4 trial point group operations.


The constrained configuration has the point symmetry C_1 .


 Subroutine INISYM returns: Found  1 space group operations
 (whereof  1 operations are pure point group operations),
 and found    28 'primitive' translations

 
 
 KPOINTS: K-POINTS                                

Automatic generation of k-mesh.
Space group operators:
 irot       det(A)        alpha          n_x          n_y          n_z        tau_x        tau_y        tau_z
    1     1.000000     0.000000     1.000000     0.000000     0.000000     0.000000     0.000000     0.000000
 
 Subroutine IBZKPT returns following result:
 ===========================================
 
 Found      5 irreducible k-points:
 
 Following reciprocal coordinates:
            Coordinates               Weight
  0.000000  0.000000  0.000000      1.000000
  0.333333  0.000000  0.000000      2.000000
  0.000000  0.333333  0.000000      2.000000
  0.333333  0.333333  0.000000      2.000000
 -0.333333  0.333333  0.000000      2.000000
 
 Following cartesian coordinates:
            Coordinates               Weight
  0.000000  0.000000  0.000000      1.000000
  0.017555  0.010135  0.000000      2.000000
  0.000000  0.035473  0.000000      2.000000
  0.017555  0.045609  0.000000      2.000000
 -0.017555  0.025338  0.000000      2.000000
 


--------------------------------------------------------------------------------------------------------




 Dimension of arrays:
   k-points           NKPTS =      5   k-points in BZ     NKDIM =      5   number of bands    NBANDS=    432
   number of dos      NEDOS =    301   number of ions     NIONS =     84
   non local maximal  LDIM  =      6   non local SUM 2l+1 LMDIM =     18
   total plane-waves  NPLWV = 627200
   max r-space proj   IRMAX =   2409   max aug-charges    IRDMAX=  11289
   dimension x,y,z NGX =   100 NGY =   56 NGZ =  112
   dimension x,y,z NGXF=   200 NGYF=  112 NGZF=  224
   support grid    NGXF=   200 NGYF=  112 NGZF=  224
   ions per type =              84
   NGX,Y,Z   is equivalent  to a cutoff of   8.76,  8.58,  8.69 a.u.
   NGXF,Y,Z  is equivalent  to a cutoff of  17.51, 17.16, 17.37 a.u.

 SYSTEM =  Birch-Murnaghan                         
 POSCAR =  Ru                                      

 Startparameter for this run:
   NWRITE =      0    write-flag & timer
   PREC   = normal    normal or accurate (medium, high low for compatibility)
   ISTART =      0    job   : 0-new  1-cont  2-samecut
   ICHARG =      2    charge: 1-file 2-atom 10-const
   ISPIN  =      1    spin polarized calculation?
   LNONCOLLINEAR =      F non collinear calculations
   LSORBIT =      F    spin-orbit coupling
   INIWAV =      1    electr: 0-lowe 1-rand  2-diag
   LASPH  =      F    aspherical Exc in radial PAW
   METAGGA=      F    non-selfconsistent MetaGGA calc.

 Electronic Relaxation 1
   ENCUT  =  450.0 eV  33.07 Ry    5.75 a.u.  32.84 18.77 37.08*2*pi/ulx,y,z
   ENINI  =  450.0     initial cutoff
   ENAUG  =  333.5 eV  augmentation charge cutoff
   NELM   =     60;   NELMIN=  5; NELMDL= -7     # of ELM steps 
   EDIFF  = 0.1E-05   stopping-criterion for ELM
   LREAL  =      T    real-space projection
   NLSPLINE    = F    spline interpolate recip. space projectors
   LCOMPAT=      F    compatible to vasp.4.4
   GGA_COMPAT  = T    GGA compatible to vasp.4.4-vasp.4.6
   LMAXPAW     = -100 max onsite density
   LMAXMIX     =    2 max onsite mixed and CHGCAR
   VOSKOWN=      0    Vosko Wilk Nusair interpolation
   ROPT   =   -0.00050
 Ionic relaxation
   EDIFFG = -.5E-02   stopping-criterion for IOM
   NSW    =     50    number of steps for IOM
   NBLOCK =      1;   KBLOCK =     50    inner block; outer block 
   IBRION =      1    ionic relax: 0-MD 1-quasi-New 2-CG
   NFREE  =      0    steps in history (QN), initial steepest desc. (CG)
   ISIF   =      2    stress and relaxation
   IWAVPR =     11    prediction:  0-non 1-charg 2-wave 3-comb
   ISYM   =      2    0-nonsym 1-usesym 2-fastsym
   LCORR  =      T    Harris-Foulkes like correction to forces

   POTIM  = 0.2500    time-step for ionic-motion
   TEIN   =    0.0    initial temperature
   TEBEG  =    0.0;   TEEND  =   0.0 temperature during run
   SMASS  =  -3.00    Nose mass-parameter (am)
   estimated Nose-frequenzy (Omega)   =  0.10E-29 period in steps =****** mass=  -0.824E-26a.u.
   SCALEE = 1.0000    scale energy and forces
   NPACO  =    256;   APACO  = 16.0  distance and # of slots for P.C.
   PSTRESS=    0.0 pullay stress

  Mass of Ions in am
   POMASS = 101.07
  Ionic Valenz
   ZVAL   =   8.00
  Atomic Wigner-Seitz radii
   RWIGS  =  -1.00
  virtual crystal weights 
   VCA    =   1.00
   NELECT =     672.0000    total number of electrons
   NUPDOWN=      -1.0000    fix difference up-down

 DOS related values:
   EMIN   =  10.00;   EMAX   =-10.00  energy-range for DOS
   EFERMI =   0.00
   ISMEAR =     0;   SIGMA  =   0.03  broadening in eV -4-tet -1-fermi 0-gaus

 Electronic relaxation 2 (details)
   IALGO  =     68    algorithm
   LDIAG  =      T    sub-space diagonalisation (order eigenvalues)
   LSUBROT=      F    optimize rotation matrix (better conditioning)
   TURBO    =      0    0=normal 1=particle mesh
   IRESTART =      0    0=no restart 2=restart with 2 vectors
   NREBOOT  =      0    no. of reboots
   NMIN     =      0    reboot dimension
   EREF     =   0.00    reference energy to select bands
   IMIX   =      4    mixing-type and parameters
     AMIX     =   0.40;   BMIX     =  1.00
     AMIX_MAG =   1.60;   BMIX_MAG =  1.00
     AMIN     =   0.10
     WC   =   100.;   INIMIX=   1;  MIXPRE=   1;  MAXMIX= -45

 Intra band minimization:
   WEIMIN = 0.0010     energy-eigenvalue tresh-hold
   EBREAK =  0.58E-09  absolut break condition
   DEPER  =   0.30     relativ break condition  

   TIME   =   0.40     timestep for ELM

  volume/ion in A,a.u.               =      45.53       307.28
  Fermi-wavevector in a.u.,A,eV,Ry     =   0.916912  1.732712 11.438787  0.840727
  Thomas-Fermi vector in A             =   2.041821
 
 Write flags
   LWAVE        =      F    write WAVECAR
   LDOWNSAMPLE  =      F    k-point downsampling of WAVECAR
   LCHARG       =      F    write CHGCAR
   LVTOT        =      F    write LOCPOT, total local potential
   LVHAR        =      F    write LOCPOT, Hartree potential only
   LELF         =      F    write electronic localiz. function (ELF)
   LORBIT       =      0    0 simple, 1 ext, 2 COOP (PROOUT), +10 PAW based schemes


 Dipole corrections
   LMONO  =      F    monopole corrections only (constant potential shift)
   LDIPOL =      T    correct potential (dipole corrections)
   IDIPOL =      3    1-x, 2-y, 3-z, 4-all directions 
   EPSILON=  1.0000000 bulk dielectric constant

 Exchange correlation treatment:
   GGA     =    PE    GGA type
   LEXCH   =     8    internal setting for exchange type
   VOSKOWN=      0    Vosko Wilk Nusair interpolation
   LHFCALC =     F    Hartree Fock is set to
   LHFONE  =     F    Hartree Fock one center treatment
   AEXX    =    0.0000 exact exchange contribution

 Linear response parameters
   LEPSILON=     F    determine dielectric tensor
   LRPA    =     F    only Hartree local field effects (RPA)
   LNABLA  =     F    use nabla operator in PAW spheres
   LVEL    =     F    velocity operator in full k-point grid
   LINTERFAST=   F  fast interpolation
   KINTER  =     0    interpolate to denser k-point grid
   CSHIFT  =0.1000    complex shift for real part using Kramers Kronig
   OMEGAMAX=  -1.0    maximum frequency
   DEG_THRESHOLD= 0.2000000E-02 threshold for treating states as degnerate
   RTIME   =   -0.100 relaxation time in fs
  (WPLASMAI=    0.000 imaginary part of plasma frequency in eV, 0.658/RTIME)
   DFIELD  = 0.0000000 0.0000000 0.0000000 field for delta impulse in time
 
 Orbital magnetization related:
   ORBITALMAG=     F  switch on orbital magnetization
   LCHIMAG   =     F  perturbation theory with respect to B field
   DQ        =  0.001000  dq finite difference perturbation B field
   LLRAUG    =     F  two centre corrections for induced B field



--------------------------------------------------------------------------------------------------------


 quasi-Newton-method for relaxation of ions
   using selective dynamics as specified on POSCAR
   WARNING: If single coordinates had been selected the selection of coordinates
            is made according to the corresponding   d i r e c t   coordinates!
            Don't support selection of single cartesian coordinates -- sorry ...
  !
 charge density and potential will be updated during run
 non-spin polarized calculation
 RMM-DIIS sequential band-by-band and
  variant of blocked Davidson during initial phase
 perform sub-space diagonalisation
    before iterative eigenvector-optimisation
 modified Broyden-mixing scheme, WC =      100.0
 initial mixing is a Kerker type mixing with AMIX =  0.4000 and BMIX =      1.0000
 Hartree-type preconditioning will be used
 using additional bands           96
 real space projection scheme for non local part
 use partial core corrections
 calculate Harris-corrections to forces 
   (improved forces if not selfconsistent)
 use gradient corrections 
 use of overlap-Matrix (Vanderbilt PP)
 Gauss-broadening in eV      SIGMA  =   0.03


--------------------------------------------------------------------------------------------------------


  energy-cutoff  :      450.00
  volume of cell :     3824.82
      direct lattice vectors                 reciprocal lattice vectors
    18.988199950  0.000000000  0.000000000     0.052664286  0.030405740  0.000000000
    -5.425199986  9.396722016  0.000000000     0.000000000  0.106420090  0.000000000
     0.000000000  0.000000000 21.436357945     0.000000000  0.000000000  0.046649716

  length of vectors
    18.988199950 10.850399971 21.436357945     0.060811480  0.106420090  0.046649716


 
 k-points in units of 2pi/SCALE and weight: K-POINTS                                
   0.00000000  0.00000000  0.00000000       0.111
   0.01755476  0.01013525  0.00000000       0.222
   0.00000000  0.03547336  0.00000000       0.222
   0.01755476  0.04560861  0.00000000       0.222
  -0.01755476  0.02533812  0.00000000       0.222
 
 k-points in reciprocal lattice and weights: K-POINTS                                
   0.00000000  0.00000000  0.00000000       0.111
   0.33333333  0.00000000  0.00000000       0.222
   0.00000000  0.33333333  0.00000000       0.222
   0.33333333  0.33333333  0.00000000       0.222
  -0.33333333  0.33333333  0.00000000       0.222
 
 position of ions in fractional coordinates (direct lattice) 
   0.04761857  0.16666751  0.20017397
   0.04761857  0.41666751  0.20017397
   0.04761857  0.66666751  0.20017397
   0.04761857  0.91666751  0.20017397
   0.19047572  0.16666751  0.20017397
   0.19047572  0.41666751  0.20017397
   0.19047572  0.66666751  0.20017397
   0.19047572  0.91666751  0.20017397
   0.33333286  0.16666751  0.20017397
   0.33333286  0.41666751  0.20017397
   0.33333286  0.66666751  0.20017397
   0.33333286  0.91666751  0.20017397
   0.47619000  0.16666751  0.20017397
   0.47619000  0.41666751  0.20017397
   0.47619000  0.66666751  0.20017397
   0.47619000  0.91666751  0.20017397
   0.61904714  0.16666751  0.20017397
   0.61904714  0.41666751  0.20017397
   0.61904714  0.66666751  0.20017397
   0.61904714  0.91666751  0.20017397
   0.76190429  0.16666751  0.20017397
   0.76190429  0.41666751  0.20017397
   0.76190429  0.66666751  0.20017397
   0.76190429  0.91666751  0.20017397
   0.90476143  0.16666751  0.20017397
   0.90476143  0.41666751  0.20017397
   0.90476143  0.66666751  0.20017397
   0.90476143  0.91666751  0.20017397
   0.09523857  0.08333250  0.10009367
   0.09523857  0.33333250  0.10009367
   0.09523857  0.58333250  0.10009367
   0.09523857  0.83333250  0.10009367
   0.23809572  0.08333250  0.10009367
   0.23809572  0.33333250  0.10009367
   0.23809572  0.58333250  0.10009367
   0.23809572  0.83333250  0.10009367
   0.38095286  0.08333250  0.10009367
   0.38095286  0.33333250  0.10009367
   0.38095286  0.58333250  0.10009367
   0.38095286  0.83333250  0.10009367
   0.52381000  0.08333250  0.10009367
   0.52381000  0.33333250  0.10009367
   0.52381000  0.58333250  0.10009367
   0.52381000  0.83333250  0.10009367
   0.66666715  0.08333250  0.10009367
   0.66666715  0.33333250  0.10009367
   0.66666715  0.58333250  0.10009367
   0.66666715  0.83333250  0.10009367
   0.80952429  0.08333250  0.10009367
   0.80952429  0.33333250  0.10009367
   0.80952429  0.58333250  0.10009367
   0.80952429  0.83333250  0.10009367
   0.95238143  0.08333250  0.10009367
   0.95238143  0.33333250  0.10009367
   0.95238143  0.58333250  0.10009367
   0.95238143  0.83333250  0.10009367
   0.04761857  0.16666751  0.00000002
   0.04761857  0.41666751  0.00000002
   0.04761857  0.66666751  0.00000002
   0.04761857  0.91666751  0.00000002
   0.19047572  0.16666751  0.00000002
   0.19047572  0.41666751  0.00000002
   0.19047572  0.66666751  0.00000002
   0.19047572  0.91666751  0.00000002
   0.33333286  0.16666751  0.00000002
   0.33333286  0.41666751  0.00000002
   0.33333286  0.66666751  0.00000002
   0.33333286  0.91666751  0.00000002
   0.47619000  0.16666751  0.00000002
   0.47619000  0.41666751  0.00000002
   0.47619000  0.66666751  0.00000002
   0.47619000  0.91666751  0.00000002
   0.61904714  0.16666751  0.00000002
   0.61904714  0.41666751  0.00000002
   0.61904714  0.66666751  0.00000002
   0.61904714  0.91666751  0.00000002
   0.76190429  0.16666751  0.00000002
   0.76190429  0.41666751  0.00000002
   0.76190429  0.66666751  0.00000002
   0.76190429  0.91666751  0.00000002
   0.90476143  0.16666751  0.00000002
   0.90476143  0.41666751  0.00000002
   0.90476143  0.66666751  0.00000002
   0.90476143  0.91666751  0.00000002
 
 position of ions in cartesian coordinates  (Angst):
  -0.00001358  1.56612822  4.29100095
  -1.35631358  3.91530873  4.29100095
  -2.71261357  6.26448923  4.29100095
  -4.06891357  8.61366974  4.29100095
   2.71258641  1.56612822  4.29100095
   1.35628642  3.91530873  4.29100095
  -0.00001358  6.26448923  4.29100095
  -1.35631358  8.61366974  4.29100095
   5.42518640  1.56612822  4.29100095
   4.06888641  3.91530873  4.29100095
   2.71258641  6.26448923  4.29100095
   1.35628642  8.61366974  4.29100095
   8.13778640  1.56612822  4.29100095
   6.78148640  3.91530873  4.29100095
   5.42518640  6.26448923  4.29100095
   4.06888641  8.61366974  4.29100095
  10.85038639  1.56612822  4.29100095
   9.49408639  3.91530873  4.29100095
   8.13778640  6.26448923  4.29100095
   6.78148640  8.61366974  4.29100095
  13.56298638  1.56612822  4.29100095
  12.20668639  3.91530873  4.29100095
  10.85038639  6.26448923  4.29100095
   9.49408639  8.61366974  4.29100095
  16.27558638  1.56612822  4.29100095
  14.91928638  3.91530873  4.29100095
  13.56298638  6.26448923  4.29100095
  12.20668639  8.61366974  4.29100095
   1.35631362  0.78305235  2.14564370
   0.00001362  3.13223285  2.14564370
  -1.35628637  5.48141336  2.14564370
  -2.71258637  7.83059386  2.14564370
   4.06891361  0.78305235  2.14564370
   2.71261361  3.13223285  2.14564370
   1.35631362  5.48141336  2.14564370
   0.00001362  7.83059386  2.14564370
   6.78151360  0.78305235  2.14564370
   5.42521361  3.13223285  2.14564370
   4.06891361  5.48141336  2.14564370
   2.71261361  7.83059386  2.14564370
   9.49411360  0.78305235  2.14564370
   8.13781360  3.13223285  2.14564370
   6.78151360  5.48141336  2.14564370
   5.42521361  7.83059386  2.14564370
  12.20671359  0.78305235  2.14564370
  10.85041359  3.13223285  2.14564370
   9.49411360  5.48141336  2.14564370
   8.13781360  7.83059386  2.14564370
  14.91931358  0.78305235  2.14564370
  13.56301359  3.13223285  2.14564370
  12.20671359  5.48141336  2.14564370
  10.85041359  7.83059386  2.14564370
  17.63191357  0.78305235  2.14564370
  16.27561358  3.13223285  2.14564370
  14.91931358  5.48141336  2.14564370
  13.56301359  7.83059386  2.14564370
  -0.00001358  1.56612822  0.00000046
  -1.35631358  3.91530873  0.00000046
  -2.71261357  6.26448923  0.00000046
  -4.06891357  8.61366974  0.00000046
   2.71258641  1.56612822  0.00000046
   1.35628642  3.91530873  0.00000046
  -0.00001358  6.26448923  0.00000046
  -1.35631358  8.61366974  0.00000046
   5.42518640  1.56612822  0.00000046
   4.06888641  3.91530873  0.00000046
   2.71258641  6.26448923  0.00000046
   1.35628642  8.61366974  0.00000046
   8.13778640  1.56612822  0.00000046
   6.78148640  3.91530873  0.00000046
   5.42518640  6.26448923  0.00000046
   4.06888641  8.61366974  0.00000046
  10.85038639  1.56612822  0.00000046
   9.49408639  3.91530873  0.00000046
   8.13778640  6.26448923  0.00000046
   6.78148640  8.61366974  0.00000046
  13.56298638  1.56612822  0.00000046
  12.20668639  3.91530873  0.00000046
  10.85038639  6.26448923  0.00000046
   9.49408639  8.61366974  0.00000046
  16.27558638  1.56612822  0.00000046
  14.91928638  3.91530873  0.00000046
  13.56298638  6.26448923  0.00000046
  12.20668639  8.61366974  0.00000046
 


--------------------------------------------------------------------------------------------------------


 k-point  1 :   0.0000 0.0000 0.0000  plane waves:   82945
 k-point  2 :   0.3333 0.0000 0.0000  plane waves:   82944
 k-point  3 :   0.0000 0.3333 0.0000  plane waves:   82913
 k-point  4 :   0.3333 0.3333 0.0000  plane waves:   82924
 k-point  5 :  -0.3333 0.3333 0.0000  plane waves:   82907

 maximum and minimum number of plane-waves per node :     82945    82907

 maximum number of plane-waves:     82945
 maximum index in each direction: 
   IXMAX=   33   IYMAX=   18   IZMAX=   37
   IXMIN=  -33   IYMIN=  -19   IZMIN=  -37


 serial   3D FFT for wavefunctions
 parallel 3D FFT for charge:
    minimum data exchange during FFTs selected (reduces bandwidth)


 total amount of memory used by VASP MPI-rank0   163942. kBytes
=======================================================================

   base      :      30000. kBytes
   nonlr-proj:      33900. kBytes
   fftplans  :       6642. kBytes
   grid      :      31234. kBytes
   one-center:       1306. kBytes
   wavefun   :      60860. kBytes
 
     INWAV:  cpu time    0.0000: real time    0.0003
 Broyden mixing: mesh for mixing (old mesh)
   NGX = 65   NGY = 37   NGZ = 75
  (NGX  =200   NGY  =112   NGZ  =224)
  gives a total of 180375 points

 initial charge density was supplied:
 charge density of overlapping atoms calculated
 number of electron     672.0000000 magnetization 
 keeping initial charge density in first step


--------------------------------------------------------------------------------------------------------


 Maximum index for non-local projection operator         2304
 Maximum index for augmentation-charges          841 (set IRDMAX)


--------------------------------------------------------------------------------------------------------


 First call to EWALD:  gamma=   0.113
 Maximum number of real-space cells 3x 4x 2
 Maximum number of reciprocal cells 3x 2x 4

    FEWALD:  cpu time    0.0030: real time    0.0030


--------------------------------------- Iteration      1(   1)  ---------------------------------------


    POTLOK:  cpu time    0.1047: real time    0.1190
    SETDIJ:  cpu time    0.0088: real time    0.0142
     EDDAV:  cpu time   16.1491: real time   16.1983
       DOS:  cpu time    0.0028: real time    0.0048
    --------------------------------------------
      LOOP:  cpu time   16.2655: real time   16.3364

 eigenvalue-minimisations  :  4320
 total energy-change (2. order) : 0.3762331E+04  (-0.2563528E+05)
 number of electron     672.0000000 magnetization 
 augmentation part      672.0000000 magnetization 

 DIPCOR: dipole corrections for dipol
 direction  3 min pos   140,
 dipolmoment           0.000000      0.000000      0.000081 electrons x Angstroem
 Tr[quadrupol]    -26502.249299

 energy correction for charged system         0.000000 eV
 dipol+quadrupol energy correction           -0.000000 eV
 added-field ion interaction          0.001134 eV  (added to PSCEN)


 Free energy of the ion-electron system (eV)
  ---------------------------------------------------
  alpha Z        PSCENC =       846.42592285
  Ewald energy   TEWEN  =    163182.66450607
  -Hartree energ DENC   =   -202286.32821743
  -exchange      EXHF   =         0.00000000
  -V(xc)+E(xc)   XCENC  =     -2720.16735249
  PAW double counting   =     38863.78367238   -34769.90942879
  entropy T*S    EENTRO =        -0.03159962
  eigenvalues    EBANDS =      2435.89956775
  atomic energy  EATOM  =     38209.99419606
  Solvation  Ediel_sol  =         0.00000000
  ---------------------------------------------------
  free energy    TOTEN  =      3762.33126678 eV

  energy without entropy =     3762.36286640  energy(sigma->0) =     3762.34706659


--------------------------------------------------------------------------------------------------------




--------------------------------------- Iteration      1(   2)  ---------------------------------------


     EDDAV:  cpu time   17.4373: real time   17.4451
       DOS:  cpu time    0.0008: real time    0.0008
    --------------------------------------------
      LOOP:  cpu time   17.4381: real time   17.4460

 eigenvalue-minimisations  :  4800
 total energy-change (2. order) :-0.4208850E+04  (-0.3886028E+04)
 number of electron     672.0000000 magnetization 
 augmentation part      672.0000000 magnetization 

 DIPCOR: dipole corrections for dipol
 direction  3 min pos   140,
 dipolmoment           0.000000      0.000000      0.000081 electrons x Angstroem
 Tr[quadrupol]    -26502.249299

 energy correction for charged system         0.000000 eV
 dipol+quadrupol energy correction           -0.000000 eV
 added-field ion interaction          0.001134 eV  (added to PSCEN)


 Free energy of the ion-electron system (eV)
  ---------------------------------------------------
  alpha Z        PSCENC =       846.42592285
  Ewald energy   TEWEN  =    163182.66450607
  -Hartree energ DENC   =   -202286.32821743
  -exchange      EXHF   =         0.00000000
  -V(xc)+E(xc)   XCENC  =     -2720.16735249
  PAW double counting   =     38863.78367238   -34769.90942879
  entropy T*S    EENTRO =        -0.03426875
  eigenvalues    EBANDS =     -1772.94796281
  atomic energy  EATOM  =     38209.99419606
  Solvation  Ediel_sol  =         0.00000000
  ---------------------------------------------------
  free energy    TOTEN  =      -446.51893291 eV

  energy without entropy =     -446.48466416  energy(sigma->0) =     -446.50179854


--------------------------------------------------------------------------------------------------------




--------------------------------------- Iteration      1(   3)  ---------------------------------------


     EDDAV:  cpu time   22.7198: real time   22.7386
       DOS:  cpu time    0.0008: real time    0.0008
    --------------------------------------------
      LOOP:  cpu time   22.7206: real time   22.7395

 eigenvalue-minimisations  :  6528
 total energy-change (2. order) :-0.3134216E+03  (-0.2904062E+03)
 number of electron     672.0000000 magnetization 
 augmentation part      672.0000000 magnetization 

 DIPCOR: dipole corrections for dipol
 direction  3 min pos   140,
 dipolmoment           0.000000      0.000000      0.000081 electrons x Angstroem
 Tr[quadrupol]    -26502.249299

 energy correction for charged system         0.000000 eV
 dipol+quadrupol energy correction           -0.000000 eV
 added-field ion interaction          0.001134 eV  (added to PSCEN)


 Free energy of the ion-electron system (eV)
  ---------------------------------------------------
  alpha Z        PSCENC =       846.42592285
  Ewald energy   TEWEN  =    163182.66450607
  -Hartree energ DENC   =   -202286.32821743
  -exchange      EXHF   =         0.00000000
  -V(xc)+E(xc)   XCENC  =     -2720.16735249
  PAW double counting   =     38863.78367238   -34769.90942879
  entropy T*S    EENTRO =        -0.02410321
  eigenvalues    EBANDS =     -2086.37973870
  atomic energy  EATOM  =     38209.99419606
  Solvation  Ediel_sol  =         0.00000000
  ---------------------------------------------------
  free energy    TOTEN  =      -759.94054326 eV

  energy without entropy =     -759.91644005  energy(sigma->0) =     -759.92849166


--------------------------------------------------------------------------------------------------------




--------------------------------------- Iteration      1(   4)  ---------------------------------------


     EDDAV:  cpu time   20.1955: real time   20.2173
       DOS:  cpu time    0.0008: real time    0.0008
    --------------------------------------------
      LOOP:  cpu time   20.1963: real time   20.2181

 eigenvalue-minimisations  :  5712
 total energy-change (2. order) :-0.1571026E+02  (-0.1524756E+02)
 number of electron     672.0000000 magnetization 
 augmentation part      672.0000000 magnetization 

 DIPCOR: dipole corrections for dipol
 direction  3 min pos   140,
 dipolmoment           0.000000      0.000000      0.000081 electrons x Angstroem
 Tr[quadrupol]    -26502.249299

 energy correction for charged system         0.000000 eV
 dipol+quadrupol energy correction           -0.000000 eV
 added-field ion interaction          0.001134 eV  (added to PSCEN)


 Free energy of the ion-electron system (eV)
  ---------------------------------------------------
  alpha Z        PSCENC =       846.42592285
  Ewald energy   TEWEN  =    163182.66450607
  -Hartree energ DENC   =   -202286.32821743
  -exchange      EXHF   =         0.00000000
  -V(xc)+E(xc)   XCENC  =     -2720.16735249
  PAW double counting   =     38863.78367238   -34769.90942879
  entropy T*S    EENTRO =        -0.03000441
  eigenvalues    EBANDS =     -2102.08409944
  atomic energy  EATOM  =     38209.99419606
  Solvation  Ediel_sol  =         0.00000000
  ---------------------------------------------------
  free energy    TOTEN  =      -775.65080521 eV

  energy without entropy =     -775.62080079  energy(sigma->0) =     -775.63580300


--------------------------------------------------------------------------------------------------------




--------------------------------------- Iteration      1(   5)  ---------------------------------------


     EDDAV:  cpu time   23.0514: real time   23.0662
       DOS:  cpu time    0.0013: real time    0.0013
    --------------------------------------------
      LOOP:  cpu time   23.0527: real time   23.0675

 eigenvalue-minimisations  :  6720
 total energy-change (2. order) :-0.7087703E+00  (-0.7019008E+00)
 number of electron     672.0000000 magnetization 
 augmentation part      672.0000000 magnetization 

 DIPCOR: dipole corrections for dipol
 direction  3 min pos   140,
 dipolmoment           0.000000      0.000000      0.000081 electrons x Angstroem
 Tr[quadrupol]    -26502.249299

 energy correction for charged system         0.000000 eV
 dipol+quadrupol energy correction           -0.000000 eV
 added-field ion interaction          0.001134 eV  (added to PSCEN)


 Free energy of the ion-electron system (eV)
  ---------------------------------------------------
  alpha Z        PSCENC =       846.42592285
  Ewald energy   TEWEN  =    163182.66450607
  -Hartree energ DENC   =   -202286.32821743
  -exchange      EXHF   =         0.00000000
  -V(xc)+E(xc)   XCENC  =     -2720.16735249
  PAW double counting   =     38863.78367238   -34769.90942879
  entropy T*S    EENTRO =        -0.03034641
  eigenvalues    EBANDS =     -2102.79252773
  atomic energy  EATOM  =     38209.99419606
  Solvation  Ediel_sol  =         0.00000000
  ---------------------------------------------------
  free energy    TOTEN  =      -776.35957549 eV

  energy without entropy =     -776.32922908  energy(sigma->0) =     -776.34440228


--------------------------------------------------------------------------------------------------------




--------------------------------------- Iteration      1(   6)  ---------------------------------------


     EDDAV:  cpu time   22.5648: real time   22.5776
       DOS:  cpu time    0.0019: real time    0.0019
    --------------------------------------------
      LOOP:  cpu time   22.5667: real time   22.5795

 eigenvalue-minimisations  :  6480
 total energy-change (2. order) :-0.2914536E-01  (-0.2894227E-01)
 number of electron     672.0000000 magnetization 
 augmentation part      672.0000000 magnetization 

 DIPCOR: dipole corrections for dipol
 direction  3 min pos   140,
 dipolmoment           0.000000      0.000000      0.000081 electrons x Angstroem
 Tr[quadrupol]    -26502.249299

 energy correction for charged system         0.000000 eV
 dipol+quadrupol energy correction           -0.000000 eV
 added-field ion interaction          0.001134 eV  (added to PSCEN)


 Free energy of the ion-electron system (eV)
  ---------------------------------------------------
  alpha Z        PSCENC =       846.42592285
  Ewald energy   TEWEN  =    163182.66450607
  -Hartree energ DENC   =   -202286.32821743
  -exchange      EXHF   =         0.00000000
  -V(xc)+E(xc)   XCENC  =     -2720.16735249
  PAW double counting   =     38863.78367238   -34769.90942879
  entropy T*S    EENTRO =        -0.03032470
  eigenvalues    EBANDS =     -2102.82169479
  atomic energy  EATOM  =     38209.99419606
  Solvation  Ediel_sol  =         0.00000000
  ---------------------------------------------------
  free energy    TOTEN  =      -776.38872084 eV

  energy without entropy =     -776.35839614  energy(sigma->0) =     -776.37355849


--------------------------------------------------------------------------------------------------------




--------------------------------------- Iteration      1(   7)  ---------------------------------------


     EDDAV:  cpu time   24.2320: real time   24.2445
       DOS:  cpu time    0.0016: real time    0.0016
    CHARGE:  cpu time    0.8022: real time    0.8066
    MIXING:  cpu time    0.0032: real time    0.0050
    --------------------------------------------
      LOOP:  cpu time   25.0390: real time   25.0577

 eigenvalue-minimisations  :  7056
 total energy-change (2. order) :-0.1998366E-02  (-0.1993008E-02)
 number of electron     672.0000086 magnetization 
 augmentation part      212.4172659 magnetization 

 DIPCOR: dipole corrections for dipol
 direction  3 min pos   140,
 dipolmoment           0.000000      0.000000      0.000081 electrons x Angstroem
 Tr[quadrupol]    -26502.249299

 energy correction for charged system         0.000000 eV
 dipol+quadrupol energy correction           -0.000000 eV
 added-field ion interaction          0.001134 eV  (added to PSCEN)


 Broyden mixing:
  rms(total) = 0.92454E+01    rms(broyden)= 0.92454E+01
  rms(prec ) = 0.94453E+01
  weight for this iteration     100.00

 Free energy of the ion-electron system (eV)
  ---------------------------------------------------
  alpha Z        PSCENC =       846.42592285
  Ewald energy   TEWEN  =    163182.66450607
  -Hartree energ DENC   =   -202286.32821743
  -exchange      EXHF   =         0.00000000
  -V(xc)+E(xc)   XCENC  =     -2720.16735249
  PAW double counting   =     38863.78367238   -34769.90942879
  entropy T*S    EENTRO =        -0.03030900
  eigenvalues    EBANDS =     -2102.82370886
  atomic energy  EATOM  =     38209.99419606
  Solvation  Ediel_sol  =         0.00000000
  ---------------------------------------------------
  free energy    TOTEN  =      -776.39071921 eV

  energy without entropy =     -776.36041021  energy(sigma->0) =     -776.37556471


--------------------------------------------------------------------------------------------------------




--------------------------------------- Iteration      1(   8)  ---------------------------------------


    POTLOK:  cpu time    0.0864: real time    0.0866
    SETDIJ:  cpu time    0.0084: real time    0.0084
    EDDIAG:  cpu time    3.0224: real time    3.0275
  RMM-DIIS:  cpu time    8.8872: real time    8.8915
    ORTHCH:  cpu time    0.6935: real time    0.6935
       DOS:  cpu time    0.0007: real time    0.0007
    CHARGE:  cpu time    0.8231: real time    0.8235
    MIXING:  cpu time    0.0037: real time    0.0057
    --------------------------------------------
      LOOP:  cpu time   13.5255: real time   13.5374

 eigenvalue-minimisations  :  4336
 total energy-change (2. order) : 0.4658424E+02  (-0.1365219E+02)
 number of electron     672.0000106 magnetization 
 augmentation part      225.0452501 magnetization 

 DIPCOR: dipole corrections for dipol
 direction  3 min pos   146,
 dipolmoment           0.000000      0.000000     -0.447744 electrons x Angstroem
 Tr[quadrupol]    -26512.257306

 energy correction for charged system         0.000000 eV
 dipol+quadrupol energy correction           -0.004787 eV
 added-field ion interaction        -14.547162 eV  (added to PSCEN)


 Broyden mixing:
  rms(total) = 0.32739E+01    rms(broyden)= 0.32739E+01
  rms(prec ) = 0.34906E+01
  weight for this iteration     100.00

 eigenvalues of (default mixing * dielectric matrix)
  average eigenvalue GAMMA=   1.3832
  1.3832

 Free energy of the ion-electron system (eV)
  ---------------------------------------------------
  alpha Z        PSCENC =       831.87284058
  Ewald energy   TEWEN  =    163182.66450607
  -Hartree energ DENC   =   -202107.49117689
  -exchange      EXHF   =         0.00000000
  -V(xc)+E(xc)   XCENC  =     -2724.74383747
  PAW double counting   =     44324.54535306   -40325.73178589
  entropy T*S    EENTRO =        -0.03138449
  eigenvalues    EBANDS =     -2120.88519017
  atomic energy  EATOM  =     38209.99419606
  Solvation  Ediel_sol  =         0.00000000
  ---------------------------------------------------
  free energy    TOTEN  =      -729.80647914 eV

  energy without entropy =     -729.77509465  energy(sigma->0) =     -729.79078689


--------------------------------------------------------------------------------------------------------




--------------------------------------- Iteration      1(   9)  ---------------------------------------


    POTLOK:  cpu time    0.0877: real time    0.0892
    SETDIJ:  cpu time    0.0112: real time    0.0112
    EDDIAG:  cpu time    3.0345: real time    3.0355
  RMM-DIIS:  cpu time    8.9254: real time    8.9333
    ORTHCH:  cpu time    0.6963: real time    0.6964
       DOS:  cpu time    0.0007: real time    0.0007
    CHARGE:  cpu time    0.8177: real time    0.8185
    MIXING:  cpu time    0.0030: real time    0.0030
    --------------------------------------------
      LOOP:  cpu time   13.5767: real time   13.5879

 eigenvalue-minimisations  :  4504
 total energy-change (2. order) :-0.7157639E+02  (-0.2266556E+02)
 number of electron     672.0000118 magnetization 
 augmentation part      234.6798515 magnetization 

 DIPCOR: dipole corrections for dipol
 direction  3 min pos   136,
 dipolmoment           0.000000      0.000000      1.370860 electrons x Angstroem
 Tr[quadrupol]    -26511.543174

 energy correction for charged system         0.000000 eV
 dipol+quadrupol energy correction           -0.044869 eV
 added-field ion interaction          2.441712 eV  (added to PSCEN)


 Broyden mixing:
  rms(total) = 0.70925E+01    rms(broyden)= 0.70925E+01
  rms(prec ) = 0.96836E+01
  weight for this iteration     100.00

 eigenvalues of (default mixing * dielectric matrix)
  average eigenvalue GAMMA=   0.8685
  1.5211  0.2159

 Free energy of the ion-electron system (eV)
  ---------------------------------------------------
  alpha Z        PSCENC =       848.82163103
  Ewald energy   TEWEN  =    163182.66450607
  -Hartree energ DENC   =   -201930.24515637
  -exchange      EXHF   =         0.00000000
  -V(xc)+E(xc)   XCENC  =     -2722.46451086
  PAW double counting   =     48420.14562066   -44487.00888736
  entropy T*S    EENTRO =        -0.09786626
  eigenvalues    EBANDS =     -2323.19240075
  atomic energy  EATOM  =     38209.99419606
  Solvation  Ediel_sol  =         0.00000000
  ---------------------------------------------------
  free energy    TOTEN  =      -801.38286779 eV

  energy without entropy =     -801.28500153  energy(sigma->0) =     -801.33393466


--------------------------------------------------------------------------------------------------------




--------------------------------------- Iteration      1(  10)  ---------------------------------------


    POTLOK:  cpu time    0.0877: real time    0.0877
    SETDIJ:  cpu time    0.0083: real time    0.0083
    EDDIAG:  cpu time    3.0213: real time    3.0231
  RMM-DIIS:  cpu time    9.1304: real time    9.1342
    ORTHCH:  cpu time    0.6853: real time    0.6864
       DOS:  cpu time    0.0007: real time    0.0007
    CHARGE:  cpu time    0.8031: real time    0.8034
    MIXING:  cpu time    0.0031: real time    0.0031
    --------------------------------------------
      LOOP:  cpu time   13.7400: real time   13.7470

 eigenvalue-minimisations  :  4509
 total energy-change (2. order) : 0.2639929E+02  (-0.1087289E+02)
 number of electron     672.0000108 magnetization 
 augmentation part      235.7259201 magnetization 

 DIPCOR: dipole corrections for dipol
 direction  3 min pos   141,
 dipolmoment           0.000000      0.000000     -2.530849 electrons x Angstroem
 Tr[quadrupol]    -26515.469514

 energy correction for charged system         0.000000 eV
 dipol+quadrupol energy correction           -0.152931 eV
 added-field ion interaction        -43.367441 eV  (added to PSCEN)


 Broyden mixing:
  rms(total) = 0.58787E+01    rms(broyden)= 0.58787E+01
  rms(prec ) = 0.98601E+01
  weight for this iteration     100.00

 eigenvalues of (default mixing * dielectric matrix)
  average eigenvalue GAMMA=   0.6171
  1.5414  0.2201  0.0897

 Free energy of the ion-electron system (eV)
  ---------------------------------------------------
  alpha Z        PSCENC =       802.90441615
  Ewald energy   TEWEN  =    163182.66450607
  -Hartree energ DENC   =   -202084.98618518
  -exchange      EXHF   =         0.00000000
  -V(xc)+E(xc)   XCENC  =     -2723.23394080
  PAW double counting   =     49311.06634510   -45390.30801926
  entropy T*S    EENTRO =        -0.06643452
  eigenvalues    EBANDS =     -2083.01845908
  atomic energy  EATOM  =     38209.99419606
  Solvation  Ediel_sol  =         0.00000000
  ---------------------------------------------------
  free energy    TOTEN  =      -774.98357546 eV

  energy without entropy =     -774.91714094  energy(sigma->0) =     -774.95035820


--------------------------------------------------------------------------------------------------------




--------------------------------------- Iteration      1(  11)  ---------------------------------------


    POTLOK:  cpu time    0.0870: real time    0.0876
    SETDIJ:  cpu time    0.0084: real time    0.0084
    EDDIAG:  cpu time    3.1011: real time    3.1021
  RMM-DIIS:  cpu time    9.2243: real time    9.2282
    ORTHCH:  cpu time    0.6896: real time    0.6897
       DOS:  cpu time    0.0008: real time    0.0007
    CHARGE:  cpu time    0.8041: real time    0.8044
    MIXING:  cpu time    0.0034: real time    0.0034
    --------------------------------------------
      LOOP:  cpu time   13.9186: real time   13.9245

 eigenvalue-minimisations  :  4635
 total energy-change (2. order) : 0.5523239E+02  (-0.3006126E+01)
 number of electron     672.0000105 magnetization 
 augmentation part      231.3792380 magnetization 

 DIPCOR: dipole corrections for dipol
 direction  3 min pos   132,
 dipolmoment           0.000000      0.000000      0.349620 electrons x Angstroem
 Tr[quadrupol]    -26520.219416

 energy correction for charged system         0.000000 eV
 dipol+quadrupol energy correction           -0.002918 eV
 added-field ion interaction         -3.671835 eV  (added to PSCEN)


 Broyden mixing:
  rms(total) = 0.61455E+00    rms(broyden)= 0.61445E+00
  rms(prec ) = 0.78332E+00
  weight for this iteration     100.00

 eigenvalues of (default mixing * dielectric matrix)
  average eigenvalue GAMMA=   0.6011
  1.5116  0.5567  0.2517  0.0846

 Free energy of the ion-electron system (eV)
  ---------------------------------------------------
  alpha Z        PSCENC =       842.75003562
  Ewald energy   TEWEN  =    163182.66450607
  -Hartree energ DENC   =   -202155.08651668
  -exchange      EXHF   =         0.00000000
  -V(xc)+E(xc)   XCENC  =     -2723.45872451
  PAW double counting   =     49649.80311955   -45733.41069225
  entropy T*S    EENTRO =        -0.03339070
  eigenvalues    EBANDS =     -1992.97371743
  atomic energy  EATOM  =     38209.99419606
  Solvation  Ediel_sol  =         0.00000000
  ---------------------------------------------------
  free energy    TOTEN  =      -719.75118427 eV

  energy without entropy =     -719.71779357  energy(sigma->0) =     -719.73448892


--------------------------------------------------------------------------------------------------------




--------------------------------------- Iteration      1(  12)  ---------------------------------------


    POTLOK:  cpu time    0.0869: real time    0.0875
    SETDIJ:  cpu time    0.0084: real time    0.0084
    EDDIAG:  cpu time    3.0319: real time    3.0329
  RMM-DIIS:  cpu time   10.7549: real time   10.7637
    ORTHCH:  cpu time    0.6900: real time    0.6902
       DOS:  cpu time    0.0007: real time    0.0007
    CHARGE:  cpu time    0.7957: real time    0.7965
    MIXING:  cpu time    0.0035: real time    0.0035
    --------------------------------------------
      LOOP:  cpu time   15.3720: real time   15.3835

 eigenvalue-minimisations  :  5343
 total energy-change (2. order) :-0.1028586E-02  (-0.6501590E+00)
 number of electron     672.0000110 magnetization 
 augmentation part      231.2687797 magnetization 

 DIPCOR: dipole corrections for dipol
 direction  3 min pos   127,
 dipolmoment           0.000000      0.000000      0.606878 electrons x Angstroem
 Tr[quadrupol]    -26521.121901

 energy correction for charged system         0.000000 eV
 dipol+quadrupol energy correction           -0.008794 eV
 added-field ion interaction        -15.691875 eV  (added to PSCEN)


 Broyden mixing:
  rms(total) = 0.42688E+00    rms(broyden)= 0.42687E+00
  rms(prec ) = 0.64567E+00
  weight for this iteration     100.00

 eigenvalues of (default mixing * dielectric matrix)
  average eigenvalue GAMMA=   0.7782
  1.6329  1.0315  0.8883  0.2534  0.0850

 Free energy of the ion-electron system (eV)
  ---------------------------------------------------
  alpha Z        PSCENC =       830.72412030
  Ewald energy   TEWEN  =    163182.66450607
  -Hartree energ DENC   =   -202190.74393915
  -exchange      EXHF   =         0.00000000
  -V(xc)+E(xc)   XCENC  =     -2723.23872702
  PAW double counting   =     50030.38986480   -46120.95138529
  entropy T*S    EENTRO =        -0.03234096
  eigenvalues    EBANDS =     -1938.55850766
  atomic energy  EATOM  =     38209.99419606
  Solvation  Ediel_sol  =         0.00000000
  ---------------------------------------------------
  free energy    TOTEN  =      -719.75221286 eV

  energy without entropy =     -719.71987190  energy(sigma->0) =     -719.73604238


--------------------------------------------------------------------------------------------------------




--------------------------------------- Iteration      1(  13)  ---------------------------------------


    POTLOK:  cpu time    0.0876: real time    0.0881
    SETDIJ:  cpu time    0.0084: real time    0.0084
    EDDIAG:  cpu time    3.1010: real time    3.1020
  RMM-DIIS:  cpu time    8.9716: real time    8.9752
    ORTHCH:  cpu time    0.7022: real time    0.7024
       DOS:  cpu time    0.0008: real time    0.0008
    CHARGE:  cpu time    0.7996: real time    0.8002
    MIXING:  cpu time    0.0035: real time    0.0035
    --------------------------------------------
      LOOP:  cpu time   13.6747: real time   13.6805

 eigenvalue-minimisations  :  4491
 total energy-change (2. order) :-0.4048527E+00  (-0.1508264E+00)
 number of electron     672.0000109 magnetization 
 augmentation part      230.9865164 magnetization 

 DIPCOR: dipole corrections for dipol
 direction  3 min pos   138,
 dipolmoment           0.000000      0.000000     -0.510400 electrons x Angstroem
 Tr[quadrupol]    -26522.895478

 energy correction for charged system         0.000000 eV
 dipol+quadrupol energy correction           -0.006220 eV
 added-field ion interaction         -4.043853 eV  (added to PSCEN)


 Broyden mixing:
  rms(total) = 0.68747E+00    rms(broyden)= 0.68747E+00
  rms(prec ) = 0.12243E+01
  weight for this iteration     100.00

 eigenvalues of (default mixing * dielectric matrix)
  average eigenvalue GAMMA=   0.8430
  2.0379  1.3784  0.8486  0.4544  0.2534  0.0851

 Free energy of the ion-electron system (eV)
  ---------------------------------------------------
  alpha Z        PSCENC =       842.37471633
  Ewald energy   TEWEN  =    163182.66450607
  -Hartree energ DENC   =   -202246.03371325
  -exchange      EXHF   =         0.00000000
  -V(xc)+E(xc)   XCENC  =     -2722.48517122
  PAW double counting   =     50895.85193066   -47000.34640039
  entropy T*S    EENTRO =        -0.03984295
  eigenvalues    EBANDS =     -1882.13728686
  atomic energy  EATOM  =     38209.99419606
  Solvation  Ediel_sol  =         0.00000000
  ---------------------------------------------------
  free energy    TOTEN  =      -720.15706554 eV

  energy without entropy =     -720.11722259  energy(sigma->0) =     -720.13714407


--------------------------------------------------------------------------------------------------------




--------------------------------------- Iteration      1(  14)  ---------------------------------------


    POTLOK:  cpu time    0.0876: real time    0.0890
    SETDIJ:  cpu time    0.0084: real time    0.0084
    EDDIAG:  cpu time    3.0273: real time    3.0290
  RMM-DIIS:  cpu time    9.7199: real time    9.7273
    ORTHCH:  cpu time    0.6945: real time    0.6948
       DOS:  cpu time    0.0007: real time    0.0007
    CHARGE:  cpu time    0.7990: real time    0.7994
    MIXING:  cpu time    0.0036: real time    0.0036
    --------------------------------------------
      LOOP:  cpu time   14.3410: real time   14.3523

 eigenvalue-minimisations  :  4801
 total energy-change (2. order) : 0.3543039E+00  (-0.2125778E-01)
 number of electron     672.0000109 magnetization 
 augmentation part      231.0120675 magnetization 

 DIPCOR: dipole corrections for dipol
 direction  3 min pos   143,
 dipolmoment           0.000000      0.000000     -0.641243 electrons x Angstroem
 Tr[quadrupol]    -26523.511873

 energy correction for charged system         0.000000 eV
 dipol+quadrupol energy correction           -0.009818 eV
 added-field ion interaction        -14.926401 eV  (added to PSCEN)


 Broyden mixing:
  rms(total) = 0.51342E+00    rms(broyden)= 0.51342E+00
  rms(prec ) = 0.94173E+00
  weight for this iteration     100.00

 eigenvalues of (default mixing * dielectric matrix)
  average eigenvalue GAMMA=   0.9143
  2.1623  1.4363  1.0470  0.7081  0.7081  0.2531  0.0851

 Free energy of the ion-electron system (eV)
  ---------------------------------------------------
  alpha Z        PSCENC =       831.48856980
  Ewald energy   TEWEN  =    163182.66450607
  -Hartree energ DENC   =   -202271.42322362
  -exchange      EXHF   =         0.00000000
  -V(xc)+E(xc)   XCENC  =     -2722.10640550
  PAW double counting   =     51273.93546873   -47385.11275292
  entropy T*S    EENTRO =        -0.03508690
  eigenvalues    EBANDS =     -1839.20803335
  atomic energy  EATOM  =     38209.99419606
  Solvation  Ediel_sol  =         0.00000000
  ---------------------------------------------------
  free energy    TOTEN  =      -719.80276162 eV

  energy without entropy =     -719.76767472  energy(sigma->0) =     -719.78521817


--------------------------------------------------------------------------------------------------------




--------------------------------------- Iteration      1(  15)  ---------------------------------------


    POTLOK:  cpu time    0.0879: real time    0.0885
    SETDIJ:  cpu time    0.0084: real time    0.0084
    EDDIAG:  cpu time    3.0081: real time    3.0118
  RMM-DIIS:  cpu time    9.0761: real time    9.0839
    ORTHCH:  cpu time    0.6966: real time    0.6973
       DOS:  cpu time    0.0008: real time    0.0008
    CHARGE:  cpu time    0.8016: real time    0.8017
    MIXING:  cpu time    0.0038: real time    0.0038
    --------------------------------------------
      LOOP:  cpu time   13.6832: real time   13.6963

 eigenvalue-minimisations  :  4541
 total energy-change (2. order) : 0.4342103E+00  (-0.1271525E-01)
 number of electron     672.0000109 magnetization 
 augmentation part      231.0486971 magnetization 

 DIPCOR: dipole corrections for dipol
 direction  3 min pos   145,
 dipolmoment           0.000000      0.000000     -0.511876 electrons x Angstroem
 Tr[quadrupol]    -26524.600642

 energy correction for charged system         0.000000 eV
 dipol+quadrupol energy correction           -0.006256 eV
 added-field ion interaction        -15.058912 eV  (added to PSCEN)


 Broyden mixing:
  rms(total) = 0.24940E+00    rms(broyden)= 0.24940E+00
  rms(prec ) = 0.46834E+00
  weight for this iteration     100.00

 eigenvalues of (default mixing * dielectric matrix)
  average eigenvalue GAMMA=   0.9119
  2.2392  1.4313  1.0868  0.7930  0.7930  0.6135  0.2531  0.0851

 Free energy of the ion-electron system (eV)
  ---------------------------------------------------
  alpha Z        PSCENC =       831.35962107
  Ewald energy   TEWEN  =    163182.66450607
  -Hartree energ DENC   =   -202297.06025964
  -exchange      EXHF   =         0.00000000
  -V(xc)+E(xc)   XCENC  =     -2721.94137639
  PAW double counting   =     51381.74161848   -47495.00320629
  entropy T*S    EENTRO =        -0.03211766
  eigenvalues    EBANDS =     -1811.09153305
  atomic energy  EATOM  =     38209.99419606
  Solvation  Ediel_sol  =         0.00000000
  ---------------------------------------------------
  free energy    TOTEN  =      -719.36855135 eV

  energy without entropy =     -719.33643369  energy(sigma->0) =     -719.35249252


--------------------------------------------------------------------------------------------------------




--------------------------------------- Iteration      1(  16)  ---------------------------------------


    POTLOK:  cpu time    0.0879: real time    0.0886
    SETDIJ:  cpu time    0.0084: real time    0.0084
    EDDIAG:  cpu time    3.0226: real time    3.0255
  RMM-DIIS:  cpu time   10.2021: real time   10.2117
    ORTHCH:  cpu time    0.7037: real time    0.7040
       DOS:  cpu time    0.0008: real time    0.0008
    CHARGE:  cpu time    0.8030: real time    0.8031
    MIXING:  cpu time    0.0040: real time    0.0040
    --------------------------------------------
      LOOP:  cpu time   14.8325: real time   14.8460

 eigenvalue-minimisations  :  5088
 total energy-change (2. order) : 0.8222410E-01  (-0.8232757E-02)
 number of electron     672.0000110 magnetization 
 augmentation part      231.0500261 magnetization 

 DIPCOR: dipole corrections for dipol
 direction  3 min pos   146,
 dipolmoment           0.000000      0.000000     -0.457819 electrons x Angstroem
 Tr[quadrupol]    -26525.220425

 energy correction for charged system         0.000000 eV
 dipol+quadrupol energy correction           -0.005004 eV
 added-field ion interaction        -14.874501 eV  (added to PSCEN)


 Broyden mixing:
  rms(total) = 0.15761E+00    rms(broyden)= 0.15761E+00
  rms(prec ) = 0.29612E+00
  weight for this iteration     100.00

 eigenvalues of (default mixing * dielectric matrix)
  average eigenvalue GAMMA=   0.9013
  2.2520  1.3702  1.3702  0.8760  0.8760  0.6757  0.0851  0.2531  0.3536

 Free energy of the ion-electron system (eV)
  ---------------------------------------------------
  alpha Z        PSCENC =       831.54528355
  Ewald energy   TEWEN  =    163182.66450607
  -Hartree energ DENC   =   -202312.99800568
  -exchange      EXHF   =         0.00000000
  -V(xc)+E(xc)   XCENC  =     -2721.85738976
  PAW double counting   =     51410.66664179   -47524.45638367
  entropy T*S    EENTRO =        -0.03293416
  eigenvalues    EBANDS =     -1794.81224145
  atomic energy  EATOM  =     38209.99419606
  Solvation  Ediel_sol  =         0.00000000
  ---------------------------------------------------
  free energy    TOTEN  =      -719.28632725 eV

  energy without entropy =     -719.25339309  energy(sigma->0) =     -719.26986017


--------------------------------------------------------------------------------------------------------




--------------------------------------- Iteration      1(  17)  ---------------------------------------


    POTLOK:  cpu time    0.0881: real time    0.0888
    SETDIJ:  cpu time    0.0084: real time    0.0083
    EDDIAG:  cpu time    3.0270: real time    3.0282
  RMM-DIIS:  cpu time    9.2287: real time    9.2321
    ORTHCH:  cpu time    0.6909: real time    0.6911
       DOS:  cpu time    0.0008: real time    0.0008
    CHARGE:  cpu time    0.8022: real time    0.8024
    MIXING:  cpu time    0.0042: real time    0.0042
    --------------------------------------------
      LOOP:  cpu time   13.8501: real time   13.8559

 eigenvalue-minimisations  :  4649
 total energy-change (2. order) :-0.6774048E-01  (-0.4411633E-01)
 number of electron     672.0000110 magnetization 
 augmentation part      231.0541868 magnetization 

 DIPCOR: dipole corrections for dipol
 direction  3 min pos   136,
 dipolmoment           0.000000      0.000000      0.153711 electrons x Angstroem
 Tr[quadrupol]    -26526.334767

 energy correction for charged system         0.000000 eV
 dipol+quadrupol energy correction           -0.000564 eV
 added-field ion interaction          0.273784 eV  (added to PSCEN)


 Broyden mixing:
  rms(total) = 0.25347E+00    rms(broyden)= 0.25346E+00
  rms(prec ) = 0.46361E+00
  weight for this iteration     100.00

 eigenvalues of (default mixing * dielectric matrix)
  average eigenvalue GAMMA=   0.8470
  2.2463  1.4072  1.4072  0.8951  0.8951  0.6258  0.0851  0.2533  0.3682  0.2872

 Free energy of the ion-electron system (eV)
  ---------------------------------------------------
  alpha Z        PSCENC =       846.69800823
  Ewald energy   TEWEN  =    163182.66450607
  -Hartree energ DENC   =   -202342.10472907
  -exchange      EXHF   =         0.00000000
  -V(xc)+E(xc)   XCENC  =     -2721.71725690
  PAW double counting   =     51421.65373956   -47535.66621141
  entropy T*S    EENTRO =        -0.03223179
  eigenvalues    EBANDS =     -1780.84408848
  atomic energy  EATOM  =     38209.99419606
  Solvation  Ediel_sol  =         0.00000000
  ---------------------------------------------------
  free energy    TOTEN  =      -719.35406773 eV

  energy without entropy =     -719.32183594  energy(sigma->0) =     -719.33795184


--------------------------------------------------------------------------------------------------------




--------------------------------------- Iteration      1(  18)  ---------------------------------------


    POTLOK:  cpu time    0.0883: real time    0.0892
    SETDIJ:  cpu time    0.0083: real time    0.0083
    EDDIAG:  cpu time    3.0768: real time    3.0777
  RMM-DIIS:  cpu time    9.0348: real time    9.0392
    ORTHCH:  cpu time    0.6841: real time    0.6842
       DOS:  cpu time    0.0008: real time    0.0008
    CHARGE:  cpu time    0.8088: real time    0.8090
    MIXING:  cpu time    0.0048: real time    0.0137
    --------------------------------------------
      LOOP:  cpu time   13.7066: real time   13.7221

 eigenvalue-minimisations  :  4502
 total energy-change (2. order) : 0.1267068E+00  (-0.6000508E-02)
 number of electron     672.0000110 magnetization 
 augmentation part      231.0354380 magnetization 

 DIPCOR: dipole corrections for dipol
 direction  3 min pos   142,
 dipolmoment           0.000000      0.000000     -0.185191 electrons x Angstroem
 Tr[quadrupol]    -26526.523981

 energy correction for charged system         0.000000 eV
 dipol+quadrupol energy correction           -0.000819 eV
 added-field ion interaction         -3.742039 eV  (added to PSCEN)


 Broyden mixing:
  rms(total) = 0.22026E-01    rms(broyden)= 0.22022E-01
  rms(prec ) = 0.31512E-01
  weight for this iteration     100.00

 eigenvalues of (default mixing * dielectric matrix)
  average eigenvalue GAMMA=   0.9820
  2.3857  2.3857  1.3753  0.9977  0.9977  0.8672  0.6749  0.0851  0.2532  0.4479
  0.3311

 Free energy of the ion-electron system (eV)
  ---------------------------------------------------
  alpha Z        PSCENC =       842.68193073
  Ewald energy   TEWEN  =    163182.66450607
  -Hartree energ DENC   =   -202347.95299865
  -exchange      EXHF   =         0.00000000
  -V(xc)+E(xc)   XCENC  =     -2721.69316285
  PAW double counting   =     51422.34820177   -47536.30954154
  entropy T*S    EENTRO =        -0.03408950
  eigenvalues    EBANDS =     -1770.92640304
  atomic energy  EATOM  =     38209.99419606
  Solvation  Ediel_sol  =         0.00000000
  ---------------------------------------------------
  free energy    TOTEN  =      -719.22736096 eV

  energy without entropy =     -719.19327146  energy(sigma->0) =     -719.21031621


--------------------------------------------------------------------------------------------------------




--------------------------------------- Iteration      1(  19)  ---------------------------------------


    POTLOK:  cpu time    0.0878: real time    0.0892
    SETDIJ:  cpu time    0.0084: real time    0.0084
    EDDIAG:  cpu time    3.0296: real time    3.0308
  RMM-DIIS:  cpu time    9.4854: real time    9.4913
    ORTHCH:  cpu time    0.6901: real time    0.6901
       DOS:  cpu time    0.0008: real time    0.0008
    CHARGE:  cpu time    0.8078: real time    0.8083
    MIXING:  cpu time    0.0047: real time    0.0054
    --------------------------------------------
      LOOP:  cpu time   14.1145: real time   14.1242

 eigenvalue-minimisations  :  4693
 total energy-change (2. order) :-0.3358619E-02  (-0.1604602E-02)
 number of electron     672.0000110 magnetization 
 augmentation part      231.0587403 magnetization 

 DIPCOR: dipole corrections for dipol
 direction  3 min pos   144,
 dipolmoment           0.000000      0.000000     -0.173819 electrons x Angstroem
 Tr[quadrupol]    -26527.445435

 energy correction for charged system         0.000000 eV
 dipol+quadrupol energy correction           -0.000721 eV
 added-field ion interaction         -4.579803 eV  (added to PSCEN)


 Broyden mixing:
  rms(total) = 0.12692E-01    rms(broyden)= 0.12691E-01
  rms(prec ) = 0.20249E-01
  weight for this iteration     100.00

 eigenvalues of (default mixing * dielectric matrix)
  average eigenvalue GAMMA=   1.0299
  2.7388  2.7388  1.2807  1.0148  1.0148  1.0653  0.7043  0.7043  0.0851  0.2532
  0.4272  0.3312

 Free energy of the ion-electron system (eV)
  ---------------------------------------------------
  alpha Z        PSCENC =       841.84426461
  Ewald energy   TEWEN  =    163182.66450607
  -Hartree energ DENC   =   -202376.12647193
  -exchange      EXHF   =         0.00000000
  -V(xc)+E(xc)   XCENC  =     -2721.55977273
  PAW double counting   =     51376.82259448   -47490.20778659
  entropy T*S    EENTRO =        -0.03423819
  eigenvalues    EBANDS =     -1742.62801136
  atomic energy  EATOM  =     38209.99419606
  Solvation  Ediel_sol  =         0.00000000
  ---------------------------------------------------
  free energy    TOTEN  =      -719.23071958 eV

  energy without entropy =     -719.19648138  energy(sigma->0) =     -719.21360048


--------------------------------------------------------------------------------------------------------




--------------------------------------- Iteration      1(  20)  ---------------------------------------


    POTLOK:  cpu time    0.0886: real time    0.0887
    SETDIJ:  cpu time    0.0084: real time    0.0084
    EDDIAG:  cpu time    3.0237: real time    3.0251
  RMM-DIIS:  cpu time    9.1020: real time    9.1068
    ORTHCH:  cpu time    0.6977: real time    0.6979
       DOS:  cpu time    0.0007: real time    0.0007
    CHARGE:  cpu time    0.8078: real time    0.8079
    MIXING:  cpu time    0.0049: real time    0.0049
    --------------------------------------------
      LOOP:  cpu time   13.7338: real time   13.7404

 eigenvalue-minimisations  :  4581
[...]
   0.401E-02 0.182E-02 -.127E+04   0.305E-03 -.176E-03 0.126E+04   0.476E-02 -.324E-02 0.375E+01   0.125E-04 0.472E-04 -.421E-02
   0.398E-02 0.186E-02 -.127E+04   0.305E-03 -.176E-03 0.126E+04   0.476E-02 -.324E-02 0.375E+01   0.481E-04 -.672E-05 -.422E-02
   0.399E-02 0.188E-02 -.127E+04   0.305E-03 -.176E-03 0.126E+04   0.476E-02 -.324E-02 0.375E+01   0.418E-04 -.176E-04 -.424E-02
   0.437E-02 0.110E-02 -.127E+04   0.305E-03 -.176E-03 0.126E+04   0.476E-02 -.324E-02 0.375E+01   0.192E-05 -.468E-05 -.425E-02
   0.440E-02 0.104E-02 -.127E+04   0.305E-03 -.176E-03 0.126E+04   0.476E-02 -.324E-02 0.375E+01   -.235E-04 0.473E-04 -.422E-02
   0.438E-02 0.109E-02 -.127E+04   0.305E-03 -.176E-03 0.126E+04   0.476E-02 -.324E-02 0.375E+01   -.316E-05 0.403E-05 -.421E-02
   0.435E-02 0.114E-02 -.127E+04   0.305E-03 -.176E-03 0.126E+04   0.476E-02 -.324E-02 0.375E+01   0.236E-04 -.478E-04 -.423E-02
   0.413E-02 0.157E-02 -.127E+04   0.305E-03 -.176E-03 0.126E+04   0.476E-02 -.324E-02 0.375E+01   -.484E-05 -.255E-04 -.426E-02
   0.412E-02 0.150E-02 -.127E+04   0.305E-03 -.176E-03 0.126E+04   0.476E-02 -.324E-02 0.375E+01   -.150E-05 0.488E-04 -.425E-02
   0.412E-02 0.152E-02 -.127E+04   0.305E-03 -.176E-03 0.126E+04   0.476E-02 -.324E-02 0.375E+01   0.337E-06 0.237E-04 -.423E-02
   0.412E-02 0.159E-02 -.127E+04   0.305E-03 -.176E-03 0.126E+04   0.476E-02 -.324E-02 0.375E+01   -.213E-05 -.515E-04 -.424E-02
   0.495E-02 0.132E-02 -.127E+04   0.305E-03 -.176E-03 0.126E+04   0.476E-02 -.324E-02 0.375E+01   0.165E-04 -.344E-04 -.426E-02
   0.498E-02 0.123E-02 -.127E+04   0.305E-03 -.176E-03 0.126E+04   0.476E-02 -.324E-02 0.375E+01   -.912E-05 0.580E-04 -.425E-02
   0.495E-02 0.123E-02 -.127E+04   0.305E-03 -.176E-03 0.126E+04   0.476E-02 -.324E-02 0.375E+01   0.171E-04 0.567E-04 -.422E-02
   0.493E-02 0.132E-02 -.127E+04   0.305E-03 -.176E-03 0.126E+04   0.476E-02 -.324E-02 0.375E+01   0.463E-04 -.386E-04 -.423E-02
   0.400E-02 0.213E-02 -.127E+04   0.305E-03 -.176E-03 0.126E+04   0.476E-02 -.324E-02 0.375E+01   0.335E-04 -.655E-04 -.424E-02
   0.404E-02 0.206E-02 -.127E+04   0.305E-03 -.176E-03 0.126E+04   0.476E-02 -.324E-02 0.375E+01   -.120E-04 0.123E-04 -.425E-02
   0.409E-02 0.203E-02 -.127E+04   0.305E-03 -.176E-03 0.126E+04   0.476E-02 -.324E-02 0.375E+01   -.596E-04 0.460E-04 -.423E-02
   0.405E-02 0.209E-02 -.127E+04   0.305E-03 -.176E-03 0.126E+04   0.476E-02 -.324E-02 0.375E+01   -.200E-04 -.269E-04 -.421E-02
   0.436E-02 0.833E-03 -.127E+04   0.305E-03 -.176E-03 0.126E+04   0.476E-02 -.324E-02 0.375E+01   -.271E-04 -.378E-04 -.423E-02
   0.431E-02 0.827E-03 -.127E+04   0.305E-03 -.176E-03 0.126E+04   0.476E-02 -.324E-02 0.375E+01   0.160E-04 -.303E-04 -.425E-02
   0.437E-02 0.793E-03 -.127E+04   0.305E-03 -.176E-03 0.126E+04   0.476E-02 -.324E-02 0.375E+01   -.371E-04 -.411E-06 -.425E-02
   0.441E-02 0.805E-03 -.127E+04   0.305E-03 -.176E-03 0.126E+04   0.476E-02 -.324E-02 0.375E+01   -.813E-04 -.531E-05 -.423E-02
   -.571E-02 0.229E-02 0.269E-01   -.610E-03 0.352E-03 -.178E-01   -.165E-01 -.824E-02 -.965E-03   0.669E-05 0.657E-05 -.854E-02
   -.570E-02 0.228E-02 0.268E-01   -.610E-03 0.352E-03 -.178E-01   -.165E-01 -.824E-02 -.965E-03   -.245E-05 0.183E-04 -.851E-02
   -.571E-02 0.229E-02 0.269E-01   -.610E-03 0.352E-03 -.178E-01   -.165E-01 -.824E-02 -.965E-03   0.113E-04 0.894E-06 -.853E-02
   -.572E-02 0.230E-02 0.269E-01   -.610E-03 0.352E-03 -.178E-01   -.165E-01 -.824E-02 -.965E-03   0.187E-04 -.771E-05 -.856E-02
   -.416E-02 0.165E-02 0.283E-01   -.610E-03 0.352E-03 -.178E-01   -.165E-01 -.824E-02 -.965E-03   0.176E-04 -.491E-05 -.855E-02
   -.415E-02 0.163E-02 0.282E-01   -.610E-03 0.352E-03 -.178E-01   -.165E-01 -.824E-02 -.965E-03   -.451E-06 0.145E-04 -.851E-02
   -.415E-02 0.162E-02 0.282E-01   -.610E-03 0.352E-03 -.178E-01   -.165E-01 -.824E-02 -.965E-03   0.620E-05 0.178E-04 -.848E-02
   -.417E-02 0.164E-02 0.282E-01   -.610E-03 0.352E-03 -.178E-01   -.165E-01 -.824E-02 -.965E-03   0.263E-04 0.994E-07 -.853E-02
   -.381E-02 0.256E-02 0.275E-01   -.610E-03 0.352E-03 -.178E-01   -.165E-01 -.824E-02 -.965E-03   0.211E-04 -.186E-04 -.856E-02
   -.380E-02 0.255E-02 0.275E-01   -.610E-03 0.352E-03 -.178E-01   -.165E-01 -.824E-02 -.965E-03   0.102E-04 -.140E-05 -.853E-02
   -.378E-02 0.252E-02 0.274E-01   -.610E-03 0.352E-03 -.178E-01   -.165E-01 -.824E-02 -.965E-03   -.905E-05 0.227E-04 -.847E-02
   -.378E-02 0.254E-02 0.275E-01   -.610E-03 0.352E-03 -.178E-01   -.165E-01 -.824E-02 -.965E-03   0.223E-05 0.102E-04 -.851E-02
   -.513E-02 0.307E-02 0.254E-01   -.610E-03 0.352E-03 -.178E-01   -.165E-01 -.824E-02 -.965E-03   -.104E-04 -.166E-04 -.858E-02
   -.514E-02 0.305E-02 0.254E-01   -.610E-03 0.352E-03 -.178E-01   -.165E-01 -.824E-02 -.965E-03   0.801E-05 -.686E-05 -.856E-02
   -.515E-02 0.304E-02 0.253E-01   -.610E-03 0.352E-03 -.178E-01   -.165E-01 -.824E-02 -.965E-03   0.135E-04 0.169E-04 -.848E-02
   -.513E-02 0.304E-02 0.254E-01   -.610E-03 0.352E-03 -.178E-01   -.165E-01 -.824E-02 -.965E-03   -.505E-05 0.834E-05 -.849E-02
   -.535E-02 0.213E-02 0.281E-01   -.610E-03 0.352E-03 -.178E-01   -.165E-01 -.824E-02 -.965E-03   -.127E-05 -.190E-04 -.851E-02
   -.535E-02 0.212E-02 0.281E-01   -.610E-03 0.352E-03 -.178E-01   -.165E-01 -.824E-02 -.965E-03   -.113E-04 -.475E-06 -.857E-02
   -.535E-02 0.210E-02 0.280E-01   -.610E-03 0.352E-03 -.178E-01   -.165E-01 -.824E-02 -.965E-03   -.431E-05 0.157E-04 -.849E-02
   -.536E-02 0.212E-02 0.280E-01   -.610E-03 0.352E-03 -.178E-01   -.165E-01 -.824E-02 -.965E-03   0.874E-05 -.115E-05 -.844E-02
   -.354E-02 0.202E-02 0.282E-01   -.610E-03 0.352E-03 -.178E-01   -.165E-01 -.824E-02 -.965E-03   -.281E-05 -.215E-04 -.847E-02
   -.354E-02 0.201E-02 0.283E-01   -.610E-03 0.352E-03 -.178E-01   -.165E-01 -.824E-02 -.965E-03   0.446E-06 -.716E-05 -.854E-02
   -.352E-02 0.200E-02 0.283E-01   -.610E-03 0.352E-03 -.178E-01   -.165E-01 -.824E-02 -.965E-03   -.197E-04 0.109E-05 -.853E-02
   -.351E-02 0.200E-02 0.282E-01   -.610E-03 0.352E-03 -.178E-01   -.165E-01 -.824E-02 -.965E-03   -.301E-04 -.474E-05 -.846E-02
   -.318E-02 0.307E-02 0.256E-01   -.610E-03 0.352E-03 -.178E-01   -.165E-01 -.824E-02 -.965E-03   -.310E-04 -.475E-05 -.850E-02
   -.320E-02 0.307E-02 0.256E-01   -.610E-03 0.352E-03 -.178E-01   -.165E-01 -.824E-02 -.965E-03   -.587E-05 -.597E-05 -.852E-02
   -.320E-02 0.308E-02 0.256E-01   -.610E-03 0.352E-03 -.178E-01   -.165E-01 -.824E-02 -.965E-03   0.152E-05 -.113E-04 -.856E-02
   -.319E-02 0.308E-02 0.256E-01   -.610E-03 0.352E-03 -.178E-01   -.165E-01 -.824E-02 -.965E-03   -.187E-04 -.108E-04 -.854E-02
   0.297E-02 0.225E-02 0.127E+04   0.305E-03 -.176E-03 -.126E+04   0.970E-02 0.415E-02 -.374E+01   0.679E-05 0.445E-05 -.353E-02
   0.299E-02 0.224E-02 0.127E+04   0.305E-03 -.176E-03 -.126E+04   0.970E-02 0.415E-02 -.374E+01   -.181E-04 0.175E-04 -.353E-02
   0.298E-02 0.226E-02 0.127E+04   0.305E-03 -.176E-03 -.126E+04   0.970E-02 0.415E-02 -.374E+01   -.547E-05 -.981E-06 -.354E-02
   0.295E-02 0.228E-02 0.127E+04   0.305E-03 -.176E-03 -.126E+04   0.970E-02 0.415E-02 -.374E+01   0.241E-04 -.188E-04 -.355E-02
   0.350E-02 0.462E-02 0.127E+04   0.305E-03 -.176E-03 -.126E+04   0.970E-02 0.415E-02 -.374E+01   0.150E-04 -.198E-04 -.354E-02
   0.352E-02 0.460E-02 0.127E+04   0.305E-03 -.176E-03 -.126E+04   0.970E-02 0.415E-02 -.374E+01   -.929E-05 0.489E-05 -.353E-02
   0.352E-02 0.459E-02 0.127E+04   0.305E-03 -.176E-03 -.126E+04   0.970E-02 0.415E-02 -.374E+01   -.939E-05 0.199E-04 -.353E-02
   0.350E-02 0.460E-02 0.127E+04   0.305E-03 -.176E-03 -.126E+04   0.970E-02 0.415E-02 -.374E+01   0.117E-04 0.128E-06 -.354E-02
   0.544E-02 0.500E-02 0.127E+04   0.305E-03 -.176E-03 -.126E+04   0.970E-02 0.415E-02 -.374E+01   0.341E-04 -.268E-04 -.354E-02
   0.548E-02 0.500E-02 0.127E+04   0.305E-03 -.176E-03 -.126E+04   0.970E-02 0.415E-02 -.374E+01   0.282E-05 -.213E-04 -.352E-02
   0.549E-02 0.493E-02 0.127E+04   0.305E-03 -.176E-03 -.126E+04   0.970E-02 0.415E-02 -.374E+01   -.139E-04 0.426E-04 -.351E-02
   0.546E-02 0.494E-02 0.127E+04   0.305E-03 -.176E-03 -.126E+04   0.970E-02 0.415E-02 -.374E+01   0.219E-04 0.319E-04 -.354E-02
   0.548E-02 0.282E-02 0.127E+04   0.305E-03 -.176E-03 -.126E+04   0.970E-02 0.415E-02 -.374E+01   0.183E-04 -.203E-04 -.356E-02
   0.547E-02 0.284E-02 0.127E+04   0.305E-03 -.176E-03 -.126E+04   0.970E-02 0.415E-02 -.374E+01   0.338E-04 -.464E-04 -.353E-02
   0.551E-02 0.278E-02 0.127E+04   0.305E-03 -.176E-03 -.126E+04   0.970E-02 0.415E-02 -.374E+01   -.120E-04 0.203E-04 -.351E-02
   0.553E-02 0.275E-02 0.127E+04   0.305E-03 -.176E-03 -.126E+04   0.970E-02 0.415E-02 -.374E+01   -.304E-04 0.518E-04 -.354E-02
   0.233E-02 0.323E-02 0.127E+04   0.305E-03 -.176E-03 -.126E+04   0.970E-02 0.415E-02 -.374E+01   -.527E-04 0.258E-05 -.355E-02
   0.227E-02 0.328E-02 0.127E+04   0.305E-03 -.176E-03 -.126E+04   0.970E-02 0.415E-02 -.374E+01   -.643E-06 -.534E-04 -.354E-02
   0.227E-02 0.326E-02 0.127E+04   0.305E-03 -.176E-03 -.126E+04   0.970E-02 0.415E-02 -.374E+01   0.414E-05 -.278E-04 -.349E-02
   0.232E-02 0.321E-02 0.127E+04   0.305E-03 -.176E-03 -.126E+04   0.970E-02 0.415E-02 -.374E+01   -.484E-04 0.228E-04 -.350E-02
   0.455E-02 0.556E-02 0.127E+04   0.305E-03 -.176E-03 -.126E+04   0.970E-02 0.415E-02 -.374E+01   -.219E-04 0.322E-04 -.351E-02
   0.454E-02 0.560E-02 0.127E+04   0.305E-03 -.176E-03 -.126E+04   0.970E-02 0.415E-02 -.374E+01   -.925E-05 -.729E-05 -.354E-02
   0.451E-02 0.562E-02 0.127E+04   0.305E-03 -.176E-03 -.126E+04   0.970E-02 0.415E-02 -.374E+01   0.167E-04 -.347E-04 -.350E-02
   0.453E-02 0.559E-02 0.127E+04   0.305E-03 -.176E-03 -.126E+04   0.970E-02 0.415E-02 -.374E+01   0.365E-05 0.434E-05 -.348E-02
   0.651E-02 0.358E-02 0.127E+04   0.305E-03 -.176E-03 -.126E+04   0.970E-02 0.415E-02 -.374E+01   -.986E-06 0.260E-04 -.352E-02
   0.651E-02 0.359E-02 0.127E+04   0.305E-03 -.176E-03 -.126E+04   0.970E-02 0.415E-02 -.374E+01   -.332E-05 0.205E-04 -.354E-02
   0.649E-02 0.363E-02 0.127E+04   0.305E-03 -.176E-03 -.126E+04   0.970E-02 0.415E-02 -.374E+01   0.187E-04 -.204E-04 -.354E-02
   0.649E-02 0.362E-02 0.127E+04   0.305E-03 -.176E-03 -.126E+04   0.970E-02 0.415E-02 -.374E+01   0.165E-04 -.109E-04 -.352E-02
 -----------------------------------------------------------------------------------------------
   0.121E+00 0.217E+00 0.481E+00   0.222E-12 0.128E-11 0.184E-10   -.583E-01 -.205E+00 0.546E-01   -.123E-05 -.104E-04 -.456E+00
 
 
 POSITION                                       TOTAL-FORCE (eV/Angst)
 -----------------------------------------------------------------------------------
     -0.00001      1.56613      4.29100         0.008647     -0.002050     -1.008503
     -1.35631      3.91531      4.29100         0.008647     -0.002050     -1.008503
     -2.71261      6.26449      4.29100         0.008647     -0.002050     -1.008503
     -4.06891      8.61367      4.29100         0.008647     -0.002050     -1.008503
      2.71259      1.56613      4.29100         0.008647     -0.002050     -1.008503
      1.35629      3.91531      4.29100         0.008647     -0.002050     -1.008503
     -0.00001      6.26449      4.29100         0.008647     -0.002050     -1.008503
     -1.35631      8.61367      4.29100         0.008647     -0.002050     -1.008503
      5.42519      1.56613      4.29100         0.008647     -0.002050     -1.008503
      4.06889      3.91531      4.29100         0.008647     -0.002050     -1.008503
      2.71259      6.26449      4.29100         0.008647     -0.002050     -1.008503
      1.35629      8.61367      4.29100         0.008647     -0.002050     -1.008503
      8.13779      1.56613      4.29100         0.008647     -0.002050     -1.008503
      6.78149      3.91531      4.29100         0.008647     -0.002050     -1.008503
      5.42519      6.26449      4.29100         0.008647     -0.002050     -1.008503
      4.06889      8.61367      4.29100         0.008647     -0.002050     -1.008503
     10.85039      1.56613      4.29100         0.008647     -0.002050     -1.008503
      9.49409      3.91531      4.29100         0.008647     -0.002050     -1.008503
      8.13779      6.26449      4.29100         0.008647     -0.002050     -1.008503
      6.78149      8.61367      4.29100         0.008647     -0.002050     -1.008503
     13.56299      1.56613      4.29100         0.008647     -0.002050     -1.008503
     12.20669      3.91531      4.29100         0.008647     -0.002050     -1.008503
     10.85039      6.26449      4.29100         0.008647     -0.002050     -1.008503
      9.49409      8.61367      4.29100         0.008647     -0.002050     -1.008503
     16.27559      1.56613      4.29100         0.008647     -0.002050     -1.008503
     14.91929      3.91531      4.29100         0.008647     -0.002050     -1.008503
     13.56299      6.26449      4.29100         0.008647     -0.002050     -1.008503
     12.20669      8.61367      4.29100         0.008647     -0.002050     -1.008503
      1.35631      0.78305      2.14564        -0.022305     -0.005650     -0.001122
      0.00001      3.13223      2.14564        -0.022305     -0.005650     -0.001122
     -1.35629      5.48141      2.14564        -0.022305     -0.005650     -0.001122
     -2.71259      7.83059      2.14564        -0.022305     -0.005650     -0.001122
      4.06891      0.78305      2.14564        -0.022305     -0.005650     -0.001122
      2.71261      3.13223      2.14564        -0.022305     -0.005650     -0.001122
      1.35631      5.48141      2.14564        -0.022305     -0.005650     -0.001122
      0.00001      7.83059      2.14564        -0.022305     -0.005650     -0.001122
      6.78151      0.78305      2.14564        -0.022305     -0.005650     -0.001122
      5.42521      3.13223      2.14564        -0.022305     -0.005650     -0.001122
      4.06891      5.48141      2.14564        -0.022305     -0.005650     -0.001122
      2.71261      7.83059      2.14564        -0.022305     -0.005650     -0.001122
      9.49411      0.78305      2.14564        -0.022305     -0.005650     -0.001122
      8.13781      3.13223      2.14564        -0.022305     -0.005650     -0.001122
      6.78151      5.48141      2.14564        -0.022305     -0.005650     -0.001122
      5.42521      7.83059      2.14564        -0.022305     -0.005650     -0.001122
     12.20671      0.78305      2.14564        -0.022305     -0.005650     -0.001122
     10.85041      3.13223      2.14564        -0.022305     -0.005650     -0.001122
      9.49411      5.48141      2.14564        -0.022305     -0.005650     -0.001122
      8.13781      7.83059      2.14564        -0.022305     -0.005650     -0.001122
     14.91931      0.78305      2.14564        -0.022305     -0.005650     -0.001122
     13.56301      3.13223      2.14564        -0.022305     -0.005650     -0.001122
     12.20671      5.48141      2.14564        -0.022305     -0.005650     -0.001122
     10.85041      7.83059      2.14564        -0.022305     -0.005650     -0.001122
     17.63191      0.78305      2.14564        -0.022305     -0.005650     -0.001122
     16.27561      3.13223      2.14564        -0.022305     -0.005650     -0.001122
     14.91931      5.48141      2.14564        -0.022305     -0.005650     -0.001122
     13.56301      7.83059      2.14564        -0.022305     -0.005650     -0.001122
     -0.00001      1.56613      0.00000         0.013658      0.007700      1.009624
     -1.35631      3.91531      0.00000         0.013658      0.007700      1.009624
     -2.71261      6.26449      0.00000         0.013658      0.007700      1.009624
     -4.06891      8.61367      0.00000         0.013658      0.007700      1.009624
      2.71259      1.56613      0.00000         0.013658      0.007700      1.009624
      1.35629      3.91531      0.00000         0.013658      0.007700      1.009624
     -0.00001      6.26449      0.00000         0.013658      0.007700      1.009624
     -1.35631      8.61367      0.00000         0.013658      0.007700      1.009624
      5.42519      1.56613      0.00000         0.013658      0.007700      1.009624
      4.06889      3.91531      0.00000         0.013658      0.007700      1.009624
      2.71259      6.26449      0.00000         0.013658      0.007700      1.009624
      1.35629      8.61367      0.00000         0.013658      0.007700      1.009624
      8.13779      1.56613      0.00000         0.013658      0.007700      1.009624
      6.78149      3.91531      0.00000         0.013658      0.007700      1.009624
      5.42519      6.26449      0.00000         0.013658      0.007700      1.009624
      4.06889      8.61367      0.00000         0.013658      0.007700      1.009624
     10.85039      1.56613      0.00000         0.013658      0.007700      1.009624
      9.49409      3.91531      0.00000         0.013658      0.007700      1.009624
      8.13779      6.26449      0.00000         0.013658      0.007700      1.009624
      6.78149      8.61367      0.00000         0.013658      0.007700      1.009624
     13.56299      1.56613      0.00000         0.013658      0.007700      1.009624
     12.20669      3.91531      0.00000         0.013658      0.007700      1.009624
     10.85039      6.26449      0.00000         0.013658      0.007700      1.009624
      9.49409      8.61367      0.00000         0.013658      0.007700      1.009624
     16.27559      1.56613      0.00000         0.013658      0.007700      1.009624
     14.91929      3.91531      0.00000         0.013658      0.007700      1.009624
     13.56299      6.26449      0.00000         0.013658      0.007700      1.009624
     12.20669      8.61367      0.00000         0.013658      0.007700      1.009624
 -----------------------------------------------------------------------------------
    total drift:                                0.062651      0.012182      0.079433


--------------------------------------------------------------------------------------------------------



  FREE ENERGIE OF THE ION-ELECTRON SYSTEM (eV)
  ---------------------------------------------------
  free  energy   TOTEN  =      -725.45731911 eV

  energy  without entropy=     -725.42283989  energy(sigma->0) =     -725.44007950
 


--------------------------------------------------------------------------------------------------------


    POTLOK:  cpu time    0.1022: real time    0.1024


--------------------------------------------------------------------------------------------------------


 Quasi-Newton relaxation of ions (Broydens 2nd method)
  g(Force)  = 0.000E+00   g(Stress)= 0.000E+00

 Reset! Starting new Quasi-Newton update for ions 


--------------------------------------------------------------------------------------------------------


  
 reached required accuracy - stopping structural energy minimisation
     LOOP+:  cpu time  611.4237: real time  612.5073
    4ORBIT:  cpu time    0.0000: real time    0.0000

 total amount of memory used by VASP MPI-rank0   163942. kBytes
=======================================================================

   base      :      30000. kBytes
   nonlr-proj:      33900. kBytes
   fftplans  :       6642. kBytes
   grid      :      31234. kBytes
   one-center:       1306. kBytes
   wavefun   :      60860. kBytes
 
  
  
 General timing and accounting informations for this job:
 ========================================================
  
                  Total CPU time used (sec):      630.116
                            User time (sec):      626.357
                          System time (sec):        3.759
                         Elapsed time (sec):      631.780
  
                   Maximum memory used (kb):      424868.
                   Average memory used (kb):           0.
  
                          Minor page faults:       356115
                          Major page faults:            0
                 Voluntary context switches:         4267
