 vasp.5.4.4.18Apr17-6-g9f103f2a35 (build Jun 30 2017 19:19:18) complex          
  
 executed on         MareNostrum4 date 2022.04.19  22:26:05
 running on   48 total cores
 distrk:  each k-point on   48 cores,    1 groups
 distr:  one band on NCORES_PER_BAND=   1 cores,   48 groups


--------------------------------------------------------------------------------------------------------


 INCAR:
 POTCAR:    PAW_PBE Ni 02Aug2007                  

 ----------------------------------------------------------------------------- 
|                                                                             |
|           W    W    AA    RRRRR   N    N  II  N    N   GGGG   !!!           |
|           W    W   A  A   R    R  NN   N  II  NN   N  G    G  !!!           |
|           W    W  A    A  R    R  N N  N  II  N N  N  G       !!!           |
|           W WW W  AAAAAA  RRRRR   N  N N  II  N  N N  G  GGG   !            |
|           WW  WW  A    A  R   R   N   NN  II  N   NN  G    G                |
|           W    W  A    A  R    R  N    N  II  N    N   GGGG   !!!           |
|                                                                             |
|      For optimal performance we recommend to set                            |
|        NCORE= 4 - approx SQRT( number of cores)                             |
|      NCORE specifies how many cores store one orbital (NPAR=cpu/NCORE).     |
|      This setting can  greatly improve the performance of VASP for DFT.     |
|      The default,   NCORE=1            might be grossly inefficient         |
|      on modern multi-core architectures or massively parallel machines.     |
|      Do your own testing !!!!                                               |
|      Unfortunately you need to use the default for GW and RPA calculations. |
|      (for HF NCORE is supported but not extensively tested yet)             |
|                                                                             |
 ----------------------------------------------------------------------------- 

 POTCAR:    PAW_PBE Ni 02Aug2007                  
  local pseudopotential read in
  partial core-charges read in
  partial kinetic energy density read in
  atomic valenz-charges read in
  non local Contribution for L=           2  read in
    real space projection operators read in
  non local Contribution for L=           2  read in
    real space projection operators read in
  non local Contribution for L=           0  read in
    real space projection operators read in
  non local Contribution for L=           0  read in
    real space projection operators read in
  non local Contribution for L=           1  read in
    real space projection operators read in
  non local Contribution for L=           1  read in
    real space projection operators read in
    PAW grid and wavefunctions read in
 
   number of l-projection  operators is LMAX  =           6
   number of lm-projection operators is LMMAX =          18
 
 Optimization of the real space projectors (new method)

 maximal supplied QI-value         = 16.25
 optimisation between [QCUT,QGAM] = [ 10.73, 21.61] = [ 32.22,130.83] Ry 
 Optimized for a Real-space Cutoff    1.34 Angstroem

   l    n(q)    QCUT    max X(q) W(low)/X(q) W(high)/X(q)  e(spline) 
   2      8    10.726    60.317    0.47E-03    0.39E-03    0.97E-07
   2      8    10.726    55.921    0.48E-03    0.39E-03    0.10E-06
   0      9    10.726    51.690    0.35E-03    0.32E-03    0.97E-07
   0      9    10.726    30.015    0.31E-03    0.29E-03    0.88E-07
   1      8    10.726    18.849    0.34E-03    0.47E-04    0.17E-06
   1      8    10.726    14.624    0.29E-03    0.31E-04    0.15E-06
  PAW_PBE Ni 02Aug2007                  :
 energy of atom  1       EATOM=-1077.6739
 kinetic energy error for atom=    0.0038 (will be added to EATOM!!)
 
 
 POSCAR: Ni                                      
  positions in cartesian coordinates
  No initial velocities read in
 exchange correlation table for  LEXCH =        8
   RHO(1)=    0.500       N(1)  =     2000
   RHO(2)=  100.500       N(2)  =     4000
 


--------------------------------------------------------------------------------------------------------


 ion  position               nearest neighbor table
   1  0.000  0.250  0.190-  30 2.46  53 2.46  54 2.46   4 2.49   2 2.49  28 2.49   6 2.49  25 2.49
                             5 2.49
   2  0.000  0.500  0.190-  31 2.46  54 2.46  55 2.46   3 2.49   1 2.49  25 2.49   7 2.49  26 2.49
                             6 2.49
   3  0.000  0.750  0.190-  32 2.46  55 2.46  56 2.46   4 2.49   2 2.49  26 2.49   8 2.49  27 2.49
                             7 2.49
   4  0.000  1.000  0.190-  29 2.46  56 2.46  53 2.46   3 2.49   1 2.49  27 2.49   5 2.49  28 2.49
                             8 2.49
   5  0.143  0.250  0.190-  34 2.46  29 2.46  30 2.46   8 2.49   6 2.49  10 2.49   4 2.49   9 2.49
                             1 2.49
   6  0.143  0.500  0.190-  35 2.46  30 2.46  31 2.46   7 2.49   5 2.49  11 2.49   1 2.49  10 2.49
                             2 2.49
   7  0.143  0.750  0.190-  36 2.46  31 2.46  32 2.46   8 2.49   6 2.49  12 2.49   2 2.49  11 2.49
                             3 2.49
   8  0.143  1.000  0.190-  33 2.46  32 2.46  29 2.46   7 2.49   5 2.49   9 2.49   3 2.49  12 2.49
                             4 2.49
   9  0.286  0.250  0.190-  38 2.46  33 2.46  34 2.46  12 2.49  10 2.49   8 2.49  14 2.49   5 2.49
                            13 2.49
  10  0.286  0.500  0.190-  39 2.46  34 2.46  35 2.46  11 2.49   9 2.49   5 2.49  15 2.49   6 2.49
                            14 2.49
  11  0.286  0.750  0.190-  40 2.46  35 2.46  36 2.46  12 2.49  10 2.49   6 2.49  16 2.49   7 2.49
                            15 2.49
  12  0.286  1.000  0.190-  37 2.46  36 2.46  33 2.46  11 2.49   9 2.49   7 2.49  13 2.49   8 2.49
                            16 2.49
  13  0.429  0.250  0.190-  42 2.46  37 2.46  38 2.46  16 2.49  14 2.49  18 2.49  12 2.49   9 2.49
                            17 2.49
  14  0.429  0.500  0.190-  43 2.46  38 2.46  39 2.46  15 2.49  13 2.49  19 2.49   9 2.49  10 2.49
                            18 2.49
  15  0.429  0.750  0.190-  44 2.46  39 2.46  40 2.46  16 2.49  14 2.49  20 2.49  10 2.49  11 2.49
                            19 2.49
  16  0.429  1.000  0.190-  41 2.46  40 2.46  37 2.46  15 2.49  13 2.49  17 2.49  11 2.49  20 2.49
                            12 2.49
  17  0.571  0.250  0.190-  46 2.46  41 2.46  42 2.46  20 2.49  18 2.49  22 2.49  16 2.49  21 2.49
                            13 2.49
  18  0.571  0.500  0.190-  47 2.46  42 2.46  43 2.46  19 2.49  17 2.49  23 2.49  13 2.49  22 2.49
                            14 2.49
  19  0.571  0.750  0.190-  48 2.46  43 2.46  44 2.46  20 2.49  18 2.49  24 2.49  14 2.49  23 2.49
                            15 2.49
  20  0.571  1.000  0.190-  45 2.46  44 2.46  41 2.46  19 2.49  17 2.49  21 2.49  15 2.49  24 2.49
                            16 2.49
  21  0.714  0.250  0.190-  50 2.46  45 2.46  46 2.46  24 2.49  22 2.49  20 2.49  26 2.49  17 2.49
                            25 2.49
  22  0.714  0.500  0.190-  51 2.46  46 2.46  47 2.46  23 2.49  21 2.49  17 2.49  27 2.49  18 2.49
                            26 2.49
  23  0.714  0.750  0.190-  52 2.46  47 2.46  48 2.46  24 2.49  22 2.49  18 2.49  28 2.49  19 2.49
                            27 2.49
  24  0.714  1.000  0.190-  49 2.46  48 2.46  45 2.46  23 2.49  21 2.49  19 2.49  25 2.49  20 2.49
                            28 2.49
  25  0.857  0.250  0.190-  54 2.46  49 2.46  50 2.46  28 2.49  26 2.49   2 2.49  24 2.49   1 2.49
                            21 2.49
  26  0.857  0.500  0.190-  55 2.46  50 2.46  51 2.46  27 2.49  25 2.49   3 2.49  21 2.49   2 2.49
                            22 2.49
  27  0.857  0.750  0.190-  56 2.46  51 2.46  52 2.46  28 2.49  26 2.49   4 2.49  22 2.49   3 2.49
                            23 2.49
  28  0.857  1.000  0.190-  53 2.46  52 2.46  49 2.46  27 2.49  25 2.49   1 2.49  23 2.49   4 2.49
                            24 2.49
  29  0.095  0.083  0.095-   4 2.46   5 2.46   8 2.46  60 2.46  57 2.46  61 2.46  32 2.49  30 2.49
                            34 2.49  56 2.49  33 2.49  53 2.49
  30  0.095  0.333  0.095-   1 2.46   6 2.46   5 2.46  57 2.46  58 2.46  62 2.46  31 2.49  29 2.49
                            35 2.49  53 2.49  34 2.49  54 2.49
  31  0.095  0.583  0.095-   2 2.46   7 2.46   6 2.46  58 2.46  59 2.46  63 2.46  32 2.49  30 2.49
                            36 2.49  54 2.49  35 2.49  55 2.49
  32  0.095  0.833  0.095-   3 2.46   8 2.46   7 2.46  59 2.46  60 2.46  64 2.46  31 2.49  29 2.49
                            33 2.49  55 2.49  36 2.49  56 2.49
  33  0.238  0.083  0.095-   8 2.46   9 2.46  12 2.46  64 2.46  61 2.46  65 2.46  36 2.49  34 2.49
                            32 2.49  38 2.49  29 2.49  37 2.49
  34  0.238  0.333  0.095-   5 2.46  10 2.46   9 2.46  61 2.46  62 2.46  66 2.46  35 2.49  33 2.49
                            29 2.49  39 2.49  30 2.49  38 2.49
  35  0.238  0.583  0.095-   6 2.46  11 2.46  10 2.46  62 2.46  63 2.46  67 2.46  36 2.49  34 2.49
                            30 2.49  40 2.49  31 2.49  39 2.49
  36  0.238  0.833  0.095-   7 2.46  12 2.46  11 2.46  63 2.46  64 2.46  68 2.46  35 2.49  33 2.49
                            31 2.49  37 2.49  32 2.49  40 2.49
  37  0.381  0.083  0.095-  12 2.46  13 2.46  16 2.46  68 2.46  65 2.46  69 2.46  40 2.49  38 2.49
                            42 2.49  36 2.49  33 2.49  41 2.49
  38  0.381  0.333  0.095-   9 2.46  14 2.46  13 2.46  65 2.46  66 2.46  70 2.46  39 2.49  37 2.49
                            43 2.49  33 2.49  34 2.49  42 2.49
  39  0.381  0.583  0.095-  10 2.46  15 2.46  14 2.46  66 2.46  67 2.46  71 2.46  40 2.49  38 2.49
                            44 2.49  34 2.49  35 2.49  43 2.49
  40  0.381  0.833  0.095-  11 2.46  16 2.46  15 2.46  67 2.46  68 2.46  72 2.46  39 2.49  37 2.49
                            41 2.49  35 2.49  44 2.49  36 2.49
  41  0.524  0.083  0.095-  16 2.46  17 2.46  20 2.46  72 2.46  69 2.46  73 2.46  44 2.49  42 2.49
                            46 2.49  40 2.49  45 2.49  37 2.49
  42  0.524  0.333  0.095-  13 2.46  18 2.46  17 2.46  69 2.46  70 2.46  74 2.46  43 2.49  41 2.49
                            47 2.49  37 2.49  46 2.49  38 2.49
  43  0.524  0.583  0.095-  14 2.46  19 2.46  18 2.46  70 2.46  71 2.46  75 2.46  44 2.49  42 2.49
                            48 2.49  38 2.49  47 2.49  39 2.49
  44  0.524  0.833  0.095-  15 2.46  20 2.46  19 2.46  71 2.46  72 2.46  76 2.46  43 2.49  41 2.49
                            45 2.49  39 2.49  48 2.49  40 2.49
  45  0.667  0.083  0.095-  20 2.46  21 2.46  24 2.46  76 2.46  73 2.46  77 2.46  48 2.49  46 2.49
                            44 2.49  50 2.49  41 2.49  49 2.49
  46  0.667  0.333  0.095-  17 2.46  22 2.46  21 2.46  73 2.46  74 2.46  78 2.46  47 2.49  45 2.49
                            41 2.49  51 2.49  42 2.49  50 2.49
  47  0.667  0.583  0.095-  18 2.46  23 2.46  22 2.46  74 2.46  75 2.46  79 2.46  48 2.49  46 2.49
                            42 2.49  52 2.49  43 2.49  51 2.49
  48  0.667  0.833  0.095-  19 2.46  24 2.46  23 2.46  75 2.46  76 2.46  80 2.46  47 2.49  45 2.49
                            43 2.49  49 2.49  44 2.49  52 2.49
  49  0.810  0.083  0.095-  24 2.46  25 2.46  28 2.46  80 2.46  77 2.46  81 2.46  52 2.49  50 2.49
                            54 2.49  48 2.49  53 2.49  45 2.49
  50  0.810  0.333  0.095-  21 2.46  26 2.46  25 2.46  77 2.46  78 2.46  82 2.46  51 2.49  49 2.49
                            55 2.49  45 2.49  54 2.49  46 2.49
  51  0.810  0.583  0.095-  22 2.46  27 2.46  26 2.46  78 2.46  79 2.46  83 2.46  52 2.49  50 2.49
                            56 2.49  46 2.49  55 2.49  47 2.49
  52  0.810  0.833  0.095-  23 2.46  28 2.46  27 2.46  79 2.46  80 2.46  84 2.46  51 2.49  49 2.49
                            53 2.49  47 2.49  56 2.49  48 2.49
  53  0.952  0.083  0.095-  28 2.46   1 2.46   4 2.46  84 2.46  81 2.46  57 2.46  56 2.49  54 2.49
                            52 2.49  30 2.49  49 2.49  29 2.49
  54  0.952  0.333  0.095-  25 2.46   2 2.46   1 2.46  81 2.46  82 2.46  58 2.46  55 2.49  53 2.49
                            49 2.49  31 2.49  50 2.49  30 2.49
  55  0.952  0.583  0.095-  26 2.46   3 2.46   2 2.46  82 2.46  83 2.46  59 2.46  56 2.49  54 2.49
                            50 2.49  32 2.49  51 2.49  31 2.49
  56  0.952  0.833  0.095-  27 2.46   4 2.46   3 2.46  83 2.46  84 2.46  60 2.46  55 2.49  53 2.49
                            51 2.49  29 2.49  52 2.49  32 2.49
  57  0.048  0.167  0.000-  30 2.46  29 2.46  53 2.46  58 2.49  60 2.49  62 2.49  84 2.49  81 2.49
                            61 2.49
  58  0.048  0.417  0.000-  31 2.46  30 2.46  54 2.46  57 2.49  59 2.49  63 2.49  81 2.49  62 2.49
                            82 2.49
  59  0.048  0.667  0.000-  32 2.46  31 2.46  55 2.46  58 2.49  60 2.49  64 2.49  82 2.49  63 2.49
                            83 2.49
  60  0.048  0.917  0.000-  29 2.46  32 2.46  56 2.46  57 2.49  59 2.49  61 2.49  83 2.49  64 2.49
                            84 2.49
  61  0.190  0.167  0.000-  34 2.46  33 2.46  29 2.46  62 2.49  64 2.49  66 2.49  60 2.49  65 2.49
                            57 2.49
  62  0.190  0.417  0.000-  35 2.46  34 2.46  30 2.46  61 2.49  63 2.49  67 2.49  57 2.49  66 2.49
                            58 2.49
  63  0.190  0.667  0.000-  36 2.46  35 2.46  31 2.46  62 2.49  64 2.49  68 2.49  58 2.49  67 2.49
                            59 2.49
  64  0.190  0.917  0.000-  33 2.46  36 2.46  32 2.46  61 2.49  63 2.49  65 2.49  59 2.49  68 2.49
                            60 2.49
  65  0.333  0.167  0.000-  38 2.46  37 2.46  33 2.46  66 2.49  68 2.49  64 2.49  70 2.49  61 2.49
                            69 2.49
  66  0.333  0.417  0.000-  39 2.46  38 2.46  34 2.46  65 2.49  67 2.49  61 2.49  71 2.49  62 2.49
                            70 2.49
  67  0.333  0.667  0.000-  40 2.46  39 2.46  35 2.46  66 2.49  68 2.49  62 2.49  72 2.49  63 2.49
                            71 2.49
  68  0.333  0.917  0.000-  37 2.46  40 2.46  36 2.46  65 2.49  67 2.49  63 2.49  69 2.49  64 2.49
                            72 2.49
  69  0.476  0.167  0.000-  42 2.46  41 2.46  37 2.46  70 2.49  72 2.49  74 2.49  68 2.49  73 2.49
                            65 2.49
  70  0.476  0.417  0.000-  43 2.46  42 2.46  38 2.46  69 2.49  71 2.49  75 2.49  65 2.49  74 2.49
                            66 2.49
  71  0.476  0.667  0.000-  44 2.46  43 2.46  39 2.46  70 2.49  72 2.49  76 2.49  66 2.49  75 2.49
                            67 2.49
  72  0.476  0.917  0.000-  41 2.46  44 2.46  40 2.46  69 2.49  71 2.49  73 2.49  67 2.49  76 2.49
                            68 2.49
  73  0.619  0.167  0.000-  46 2.46  45 2.46  41 2.46  74 2.49  76 2.49  72 2.49  78 2.49  69 2.49
                            77 2.49
  74  0.619  0.417  0.000-  47 2.46  46 2.46  42 2.46  73 2.49  75 2.49  69 2.49  79 2.49  70 2.49
                            78 2.49
  75  0.619  0.667  0.000-  48 2.46  47 2.46  43 2.46  74 2.49  76 2.49  70 2.49  80 2.49  71 2.49
                            79 2.49
  76  0.619  0.917  0.000-  45 2.46  48 2.46  44 2.46  73 2.49  75 2.49  71 2.49  77 2.49  72 2.49
                            80 2.49
  77  0.762  0.167  0.000-  50 2.46  49 2.46  45 2.46  78 2.49  80 2.49  82 2.49  76 2.49  81 2.49
                            73 2.49
  78  0.762  0.417  0.000-  51 2.46  50 2.46  46 2.46  77 2.49  79 2.49  83 2.49  73 2.49  82 2.49
                            74 2.49
  79  0.762  0.667  0.000-  52 2.46  51 2.46  47 2.46  78 2.49  80 2.49  84 2.49  74 2.49  83 2.49
                            75 2.49
  80  0.762  0.917  0.000-  49 2.46  52 2.46  48 2.46  77 2.49  79 2.49  81 2.49  75 2.49  84 2.49
                            76 2.49
  81  0.905  0.167  0.000-  54 2.46  53 2.46  49 2.46  82 2.49  84 2.49  80 2.49  58 2.49  77 2.49
                            57 2.49
  82  0.905  0.417  0.000-  55 2.46  54 2.46  50 2.46  81 2.49  83 2.49  77 2.49  59 2.49  78 2.49
                            58 2.49
  83  0.905  0.667  0.000-  56 2.46  55 2.46  51 2.46  82 2.49  84 2.49  78 2.49  60 2.49  79 2.49
                            59 2.49
  84  0.905  0.917  0.000-  53 2.46  56 2.46  52 2.46  81 2.49  83 2.49  79 2.49  57 2.49  80 2.49
                            60 2.49
 
  Warning from LATTYP: Monoclinic adjustement (A1->A3, A2->A1, A3->A2)!
  Warning from LATTYP: Got some problem with cell dimensions!
  Tried to take original basis but could not verify dimensions!
  LATTYP: Found a simple monoclinic cell.
 ALAT       =    18.7839874413
 B/A-ratio  =     1.1229936872
 C/A-ratio  =     1.7371079010
 COS(beta)  =    -0.9695485959
  
  Lattice vectors:
  
 A1 = (  -7.4639997487, -17.2373690552,   0.0000000000)
 A2 = (   0.0000000000,   0.0000000000, -21.0942993164)
 A3 = (  19.9039993294,  25.8560535828,   0.0000000000)


Analysis of symmetry for initial positions (statically):
=====================================================================
 Subroutine PRICEL returns following result:
 
  LATTYP: Found a hexagonal cell.
 ALAT       =     2.4879999161
 C/A-ratio  =     8.4784164099
  
  Lattice vectors:
  
 A1 = (   2.4879999161,   0.0000000000,   0.0000000000)
 A2 = (  -1.2439999580,   2.1546711319,   0.0000000000)
 A3 = (   0.0000000000,   0.0000000000,  21.0942993164)
 
  28 primitive cells build up your supercell.
 

 Routine SETGRP: Setting up the symmetry group for a 
 simple monoclinic supercell.


 Subroutine GETGRP returns: Found  1 space group operations
 (whereof  1 operations were pure point group operations)
 out of a pool of  4 trial point group operations.


The static configuration has the point symmetry C_1 .


Analysis of symmetry for dynamics (positions and initial velocities):
=====================================================================
 Subroutine PRICEL returns following result:
 
  LATTYP: Found a hexagonal cell.
 ALAT       =     2.4879999161
 C/A-ratio  =     8.4784164099
  
  Lattice vectors:
  
 A1 = (   2.4879999161,   0.0000000000,   0.0000000000)
 A2 = (  -1.2439999580,   2.1546711319,   0.0000000000)
 A3 = (   0.0000000000,   0.0000000000,  21.0942993164)
 
  28 primitive cells build up your supercell.
 

 Routine SETGRP: Setting up the symmetry group for a 
 simple monoclinic supercell.


 Subroutine GETGRP returns: Found  1 space group operations
 (whereof  1 operations were pure point group operations)
 out of a pool of  4 trial point group operations.


The dynamic configuration has the point symmetry C_1 .


Analysis of constrained symmetry for selective dynamics:
=====================================================================
 Subroutine PRICEL returns following result:
 
  LATTYP: Found a hexagonal cell.
 ALAT       =     2.4879999161
 C/A-ratio  =     8.4784164099
  
  Lattice vectors:
  
 A1 = (   2.4879999161,   0.0000000000,   0.0000000000)
 A2 = (  -1.2439999580,   2.1546711319,   0.0000000000)
 A3 = (   0.0000000000,   0.0000000000,  21.0942993164)
 
  28 primitive cells build up your supercell.
 

 Routine SETGRP: Setting up the symmetry group for a 
 simple monoclinic supercell.


 Subroutine GETGRP returns: Found  1 space group operations
 (whereof  1 operations were pure point group operations)
 out of a pool of  4 trial point group operations.


The constrained configuration has the point symmetry C_1 .


Analysis of structural, dynamic, and magnetic symmetry:
=====================================================================
 Subroutine PRICEL returns following result:
 
  LATTYP: Found a hexagonal cell.
 ALAT       =     2.4879999161
 C/A-ratio  =     8.4784164099
  
  Lattice vectors:
  
 A1 = (   2.4879999161,   0.0000000000,   0.0000000000)
 A2 = (  -1.2439999580,   2.1546711319,   0.0000000000)
 A3 = (   0.0000000000,   0.0000000000,  21.0942993164)
 
  28 primitive cells build up your supercell.
 

 Routine SETGRP: Setting up the symmetry group for a 
 simple monoclinic supercell.


 Subroutine GETGRP returns: Found  1 space group operations
 (whereof  1 operations were pure point group operations)
 out of a pool of  4 trial point group operations.


The magnetic configuration has the point symmetry C_1 .


 Subroutine INISYM returns: Found  1 space group operations
 (whereof  1 operations are pure point group operations),
 and found    28 'primitive' translations

 
 
 KPOINTS: K-POINTS                                

Automatic generation of k-mesh.
Space group operators:
 irot       det(A)        alpha          n_x          n_y          n_z        tau_x        tau_y        tau_z
    1     1.000000     0.000001     1.000000     0.000000     0.000000     0.000000     0.000000     0.000000
 
 Subroutine IBZKPT returns following result:
 ===========================================
 
 Found      5 irreducible k-points:
 
 Following reciprocal coordinates:
            Coordinates               Weight
  0.000000  0.000000  0.000000      1.000000
  0.333333 -0.000000  0.000000      2.000000
  0.000000  0.333333  0.000000      2.000000
  0.333333  0.333333  0.000000      2.000000
 -0.333333  0.333333  0.000000      2.000000
 
 Following cartesian coordinates:
            Coordinates               Weight
  0.000000  0.000000  0.000000      1.000000
  0.019139  0.011050  0.000000      2.000000
  0.000000  0.038676  0.000000      2.000000
  0.019139  0.049726  0.000000      2.000000
 -0.019139  0.027625  0.000000      2.000000
 


--------------------------------------------------------------------------------------------------------




 Dimension of arrays:
   k-points           NKPTS =      5   k-points in BZ     NKDIM =      5   number of bands    NBANDS=    576
   number of dos      NEDOS =    301   number of ions     NIONS =     84
   non local maximal  LDIM  =      6   non local SUM 2l+1 LMDIM =     18
   total plane-waves  NPLWV = 544320
   max r-space proj   IRMAX =   1785   max aug-charges    IRDMAX=   5771
   dimension x,y,z NGX =    90 NGY =   54 NGZ =  112
   dimension x,y,z NGXF=   180 NGYF=  108 NGZF=  224
   support grid    NGXF=   180 NGYF=  108 NGZF=  224
   ions per type =              84
   NGX,Y,Z   is equivalent  to a cutoff of   8.59,  9.02,  8.83 a.u.
   NGXF,Y,Z  is equivalent  to a cutoff of  17.18, 18.04, 17.65 a.u.

 SYSTEM =  Birch-Murnaghan                         
 POSCAR =  Ni                                      

 Startparameter for this run:
   NWRITE =      0    write-flag & timer
   PREC   = normal    normal or accurate (medium, high low for compatibility)
   ISTART =      0    job   : 0-new  1-cont  2-samecut
   ICHARG =      2    charge: 1-file 2-atom 10-const
   ISPIN  =      2    spin polarized calculation?
   LNONCOLLINEAR =      F non collinear calculations
   LSORBIT =      F    spin-orbit coupling
   INIWAV =      1    electr: 0-lowe 1-rand  2-diag
   LASPH  =      F    aspherical Exc in radial PAW
   METAGGA=      F    non-selfconsistent MetaGGA calc.

 Electronic Relaxation 1
   ENCUT  =  450.0 eV  33.07 Ry    5.75 a.u.  30.12 17.21 36.49*2*pi/ulx,y,z
   ENINI  =  450.0     initial cutoff
   ENAUG  =  544.6 eV  augmentation charge cutoff
   NELM   =     60;   NELMIN=  5; NELMDL= -7     # of ELM steps 
   EDIFF  = 0.1E-05   stopping-criterion for ELM
   LREAL  =      T    real-space projection
   NLSPLINE    = F    spline interpolate recip. space projectors
   LCOMPAT=      F    compatible to vasp.4.4
   GGA_COMPAT  = T    GGA compatible to vasp.4.4-vasp.4.6
   LMAXPAW     = -100 max onsite density
   LMAXMIX     =    2 max onsite mixed and CHGCAR
   VOSKOWN=      0    Vosko Wilk Nusair interpolation
   ROPT   =   -0.00050
 Ionic relaxation
   EDIFFG = -.5E-02   stopping-criterion for IOM
   NSW    =     50    number of steps for IOM
   NBLOCK =      1;   KBLOCK =     50    inner block; outer block 
   IBRION =      1    ionic relax: 0-MD 1-quasi-New 2-CG
   NFREE  =      0    steps in history (QN), initial steepest desc. (CG)
   ISIF   =      2    stress and relaxation
   IWAVPR =     11    prediction:  0-non 1-charg 2-wave 3-comb
   ISYM   =      2    0-nonsym 1-usesym 2-fastsym
   LCORR  =      T    Harris-Foulkes like correction to forces

   POTIM  = 0.2500    time-step for ionic-motion
   TEIN   =    0.0    initial temperature
   TEBEG  =    0.0;   TEEND  =   0.0 temperature during run
   SMASS  =  -3.00    Nose mass-parameter (am)
   estimated Nose-frequenzy (Omega)   =  0.10E-29 period in steps =****** mass=  -0.693E-26a.u.
   SCALEE = 1.0000    scale energy and forces
   NPACO  =    256;   APACO  = 16.0  distance and # of slots for P.C.
   PSTRESS=    0.0 pullay stress

  Mass of Ions in am
   POMASS =  58.69
  Ionic Valenz
   ZVAL   =  10.00
  Atomic Wigner-Seitz radii
   RWIGS  =  -1.00
  virtual crystal weights 
   VCA    =   1.00
   NELECT =     840.0000    total number of electrons
   NUPDOWN=      -1.0000    fix difference up-down

 DOS related values:
   EMIN   =  10.00;   EMAX   =-10.00  energy-range for DOS
   EFERMI =   0.00
   ISMEAR =     0;   SIGMA  =   0.03  broadening in eV -4-tet -1-fermi 0-gaus

 Electronic relaxation 2 (details)
   IALGO  =     68    algorithm
   LDIAG  =      T    sub-space diagonalisation (order eigenvalues)
   LSUBROT=      F    optimize rotation matrix (better conditioning)
   TURBO    =      0    0=normal 1=particle mesh
   IRESTART =      0    0=no restart 2=restart with 2 vectors
   NREBOOT  =      0    no. of reboots
   NMIN     =      0    reboot dimension
   EREF     =   0.00    reference energy to select bands
   IMIX   =      4    mixing-type and parameters
     AMIX     =   0.40;   BMIX     =  1.00
     AMIX_MAG =   1.60;   BMIX_MAG =  1.00
     AMIN     =   0.10
     WC   =   100.;   INIMIX=   1;  MIXPRE=   1;  MAXMIX= -45

 Intra band minimization:
   WEIMIN = 0.0010     energy-eigenvalue tresh-hold
   EBREAK =  0.43E-09  absolut break condition
   DEPER  =   0.30     relativ break condition  

   TIME   =   0.40     timestep for ELM

  volume/ion in A,a.u.               =      37.69       254.37
  Fermi-wavevector in a.u.,A,eV,Ry     =   1.051921  1.987842 15.055359  1.106538
  Thomas-Fermi vector in A             =   2.186983
 
 Write flags
   LWAVE        =      F    write WAVECAR
   LDOWNSAMPLE  =      F    k-point downsampling of WAVECAR
   LCHARG       =      F    write CHGCAR
   LVTOT        =      F    write LOCPOT, total local potential
   LVHAR        =      F    write LOCPOT, Hartree potential only
   LELF         =      F    write electronic localiz. function (ELF)
   LORBIT       =      0    0 simple, 1 ext, 2 COOP (PROOUT), +10 PAW based schemes


 Dipole corrections
   LMONO  =      F    monopole corrections only (constant potential shift)
   LDIPOL =      T    correct potential (dipole corrections)
   IDIPOL =      3    1-x, 2-y, 3-z, 4-all directions 
   EPSILON=  1.0000000 bulk dielectric constant

 Exchange correlation treatment:
   GGA     =    PE    GGA type
   LEXCH   =     8    internal setting for exchange type
   VOSKOWN=      0    Vosko Wilk Nusair interpolation
   LHFCALC =     F    Hartree Fock is set to
   LHFONE  =     F    Hartree Fock one center treatment
   AEXX    =    0.0000 exact exchange contribution

 Linear response parameters
   LEPSILON=     F    determine dielectric tensor
   LRPA    =     F    only Hartree local field effects (RPA)
   LNABLA  =     F    use nabla operator in PAW spheres
   LVEL    =     F    velocity operator in full k-point grid
   LINTERFAST=   F  fast interpolation
   KINTER  =     0    interpolate to denser k-point grid
   CSHIFT  =0.1000    complex shift for real part using Kramers Kronig
   OMEGAMAX=  -1.0    maximum frequency
   DEG_THRESHOLD= 0.2000000E-02 threshold for treating states as degnerate
   RTIME   =   -0.100 relaxation time in fs
  (WPLASMAI=    0.000 imaginary part of plasma frequency in eV, 0.658/RTIME)
   DFIELD  = 0.0000000 0.0000000 0.0000000 field for delta impulse in time
 
 Orbital magnetization related:
   ORBITALMAG=     F  switch on orbital magnetization
   LCHIMAG   =     F  perturbation theory with respect to B field
   DQ        =  0.001000  dq finite difference perturbation B field
   LLRAUG    =     F  two centre corrections for induced B field



--------------------------------------------------------------------------------------------------------


 quasi-Newton-method for relaxation of ions
   using selective dynamics as specified on POSCAR
   WARNING: If single coordinates had been selected the selection of coordinates
            is made according to the corresponding   d i r e c t   coordinates!
            Don't support selection of single cartesian coordinates -- sorry ...
  !
 charge density and potential will be updated during run
 spin polarized calculation
 RMM-DIIS sequential band-by-band and
  variant of blocked Davidson during initial phase
 perform sub-space diagonalisation
    before iterative eigenvector-optimisation
 modified Broyden-mixing scheme, WC =      100.0
 initial mixing is a Kerker type mixing with AMIX =  0.4000 and BMIX =      1.0000
 Hartree-type preconditioning will be used
 using additional bands          156
 real space projection scheme for non local part
 use partial core corrections
 calculate Harris-corrections to forces 
   (improved forces if not selfconsistent)
 use gradient corrections 
 use of overlap-Matrix (Vanderbilt PP)
 Gauss-broadening in eV      SIGMA  =   0.03


--------------------------------------------------------------------------------------------------------


  energy-cutoff  :      450.00
  volume of cell :     3166.32
      direct lattice vectors                 reciprocal lattice vectors
    17.415999413  0.000000000  0.000000000     0.057418468  0.033150568  0.000000000
    -4.975999832  8.618684528  0.000000000     0.000000000  0.116026987  0.000000000
     0.000000000  0.000000000 21.094299316     0.000000000  0.000000000  0.047406173

  length of vectors
    17.415999413  9.951999664 21.094299316     0.066301136  0.116026987  0.047406173


 
 k-points in units of 2pi/SCALE and weight: K-POINTS                                
   0.00000000  0.00000000  0.00000000       0.111
   0.01913949  0.01105019  0.00000000       0.222
   0.00000000  0.03867566  0.00000000       0.222
   0.01913949  0.04972585  0.00000000       0.222
  -0.01913949  0.02762547  0.00000000       0.222
 
 k-points in reciprocal lattice and weights: K-POINTS                                
   0.00000000  0.00000000  0.00000000       0.111
   0.33333333 -0.00000000  0.00000000       0.222
   0.00000000  0.33333333  0.00000000       0.222
   0.33333333  0.33333333  0.00000000       0.222
  -0.33333333  0.33333333  0.00000000       0.222
 
 position of ions in fractional coordinates (direct lattice) 
   0.00001537  0.24997681  0.18957704
   0.00001537  0.49997681  0.18957704
   0.00001537  0.74997681  0.18957704
   0.00001537  0.99997681  0.18957704
   0.14287251  0.24997681  0.18957704
   0.14287251  0.49997681  0.18957704
   0.14287251  0.74997681  0.18957704
   0.14287251  0.99997681  0.18957704
   0.28572965  0.24997681  0.18957704
   0.28572965  0.49997681  0.18957704
   0.28572965  0.74997681  0.18957704
   0.28572965  0.99997681  0.18957704
   0.42858680  0.24997681  0.18957704
   0.42858680  0.49997681  0.18957704
   0.42858680  0.74997681  0.18957704
   0.42858680  0.99997681  0.18957704
   0.57144394  0.24997681  0.18957704
   0.57144394  0.49997681  0.18957704
   0.57144394  0.74997681  0.18957704
   0.57144394  0.99997681  0.18957704
   0.71430108  0.24997681  0.18957704
   0.71430108  0.49997681  0.18957704
   0.71430108  0.74997681  0.18957704
   0.71430108  0.99997681  0.18957704
   0.85715822  0.24997681  0.18957704
   0.85715822  0.49997681  0.18957704
   0.85715822  0.74997681  0.18957704
   0.85715822  0.99997681  0.18957704
   0.09522464  0.08331407  0.09489846
   0.09522464  0.33331407  0.09489846
   0.09522464  0.58331407  0.09489846
   0.09522464  0.83331407  0.09489846
   0.23808178  0.08331407  0.09489846
   0.23808178  0.33331407  0.09489846
   0.23808178  0.58331407  0.09489846
   0.23808178  0.83331407  0.09489846
   0.38093893  0.08331407  0.09489846
   0.38093893  0.33331407  0.09489846
   0.38093893  0.58331407  0.09489846
   0.38093893  0.83331407  0.09489846
   0.52379607  0.08331407  0.09489846
   0.52379607  0.33331407  0.09489846
   0.52379607  0.58331407  0.09489846
   0.52379607  0.83331407  0.09489846
   0.66665321  0.08331407  0.09489846
   0.66665321  0.33331407  0.09489846
   0.66665321  0.58331407  0.09489846
   0.66665321  0.83331407  0.09489846
   0.80951035  0.08331407  0.09489846
   0.80951035  0.33331407  0.09489846
   0.80951035  0.58331407  0.09489846
   0.80951035  0.83331407  0.09489846
   0.95236750  0.08331407  0.09489846
   0.95236750  0.33331407  0.09489846
   0.95236750  0.58331407  0.09489846
   0.95236750  0.83331407  0.09489846
   0.04761857  0.16666751  0.00000001
   0.04761857  0.41666751  0.00000001
   0.04761857  0.66666751  0.00000001
   0.04761857  0.91666751  0.00000001
   0.19047572  0.16666751  0.00000001
   0.19047572  0.41666751  0.00000001
   0.19047572  0.66666751  0.00000001
   0.19047572  0.91666751  0.00000001
   0.33333286  0.16666751  0.00000001
   0.33333286  0.41666751  0.00000001
   0.33333286  0.66666751  0.00000001
   0.33333286  0.91666751  0.00000001
   0.47619000  0.16666751  0.00000001
   0.47619000  0.41666751  0.00000001
   0.47619000  0.66666751  0.00000001
   0.47619000  0.91666751  0.00000001
   0.61904714  0.16666751  0.00000001
   0.61904714  0.41666751  0.00000001
   0.61904714  0.66666751  0.00000001
   0.61904714  0.91666751  0.00000001
   0.76190429  0.16666751  0.00000001
   0.76190429  0.41666751  0.00000001
   0.76190429  0.66666751  0.00000001
   0.76190429  0.91666751  0.00000001
   0.90476143  0.16666751  0.00000001
   0.90476143  0.41666751  0.00000001
   0.90476143  0.66666751  0.00000001
   0.90476143  0.91666751  0.00000001
 
 position of ions in cartesian coordinates  (Angst):
  -1.24361694  2.15447126  3.99899477
  -2.48761690  4.30914239  3.99899477
  -3.73161686  6.46381352  3.99899477
  -4.97561681  8.61848466  3.99899477
   1.24438298  2.15447126  3.99899477
   0.00038302  4.30914239  3.99899477
  -1.24361694  6.46381352  3.99899477
  -2.48761690  8.61848466  3.99899477
   3.73238289  2.15447126  3.99899477
   2.48838294  4.30914239  3.99899477
   1.24438298  6.46381352  3.99899477
   0.00038302  8.61848466  3.99899477
   6.22038281  2.15447126  3.99899477
   4.97638285  4.30914239  3.99899477
   3.73238289  6.46381352  3.99899477
   2.48838294  8.61848466  3.99899477
   8.70838273  2.15447126  3.99899477
   7.46438277  4.30914239  3.99899477
   6.22038281  6.46381352  3.99899477
   4.97638285  8.61848466  3.99899477
  11.19638264  2.15447126  3.99899477
   9.95238268  4.30914239  3.99899477
   8.70838273  6.46381352  3.99899477
   7.46438277  8.61848466  3.99899477
  13.68438256  2.15447126  3.99899477
  12.44038260  4.30914239  3.99899477
  11.19638264  6.46381352  3.99899477
   9.95238268  8.61848466  3.99899477
   1.24386148  0.71805767  2.00181652
  -0.00013847  2.87272880  2.00181652
  -1.24413843  5.02739993  2.00181652
  -2.48813839  7.18207107  2.00181652
   3.73186140  0.71805767  2.00181652
   2.48786144  2.87272880  2.00181652
   1.24386148  5.02739993  2.00181652
  -0.00013847  7.18207107  2.00181652
   6.21986132  0.71805767  2.00181652
   4.97586136  2.87272880  2.00181652
   3.73186140  5.02739993  2.00181652
   2.48786144  7.18207107  2.00181652
   8.70786123  0.71805767  2.00181652
   7.46386128  2.87272880  2.00181652
   6.21986132  5.02739993  2.00181652
   4.97586136  7.18207107  2.00181652
  11.19586115  0.71805767  2.00181652
   9.95186119  2.87272880  2.00181652
   8.70786123  5.02739993  2.00181652
   7.46386128  7.18207107  2.00181652
  13.68386107  0.71805767  2.00181652
  12.43986111  2.87272880  2.00181652
  11.19586115  5.02739993  2.00181652
   9.95186119  7.18207107  2.00181652
  16.17186098  0.71805767  2.00181652
  14.92786102  2.87272880  2.00181652
  13.68386107  5.02739993  2.00181652
  12.43986111  7.18207107  2.00181652
  -0.00001246  1.43645466  0.00000018
  -1.24401242  3.59112579  0.00000018
  -2.48801237  5.74579692  0.00000018
  -3.73201233  7.90046805  0.00000018
   2.48798746  1.43645466  0.00000018
   1.24398750  3.59112579  0.00000018
  -0.00001246  5.74579692  0.00000018
  -1.24401241  7.90046805  0.00000018
   4.97598738  1.43645466  0.00000018
   3.73198742  3.59112579  0.00000018
   2.48798746  5.74579692  0.00000018
   1.24398750  7.90046805  0.00000018
   7.46398729  1.43645466  0.00000018
   6.21998733  3.59112579  0.00000018
   4.97598738  5.74579692  0.00000018
   3.73198742  7.90046805  0.00000018
   9.95198721  1.43645466  0.00000018
   8.70798725  3.59112579  0.00000018
   7.46398729  5.74579692  0.00000018
   6.21998733  7.90046805  0.00000018
  12.43998712  1.43645466  0.00000018
  11.19598717  3.59112579  0.00000018
   9.95198721  5.74579692  0.00000018
   8.70798725  7.90046805  0.00000018
  14.92798704  1.43645466  0.00000018
  13.68398708  3.59112579  0.00000018
  12.43998712  5.74579692  0.00000018
  11.19598717  7.90046805  0.00000018
 


--------------------------------------------------------------------------------------------------------


 k-point  1 :   0.0000 0.0000 0.0000  plane waves:   68637
 k-point  2 :   0.3333-0.0000 0.0000  plane waves:   68670
 k-point  3 :   0.0000 0.3333 0.0000  plane waves:   68650
 k-point  4 :   0.3333 0.3333 0.0000  plane waves:   68645
 k-point  5 :  -0.3333 0.3333 0.0000  plane waves:   68661

 maximum and minimum number of plane-waves per node :     68670    68637

 maximum number of plane-waves:     68670
 maximum index in each direction: 
   IXMAX=   30   IYMAX=   17   IZMAX=   36
   IXMIN=  -30   IYMIN=  -17   IZMIN=  -36


 serial   3D FFT for wavefunctions
 parallel 3D FFT for charge:
    minimum data exchange during FFTs selected (reduces bandwidth)


 total amount of memory used by VASP MPI-rank0   248523. kBytes
=======================================================================

   base      :      30000. kBytes
   nonlr-proj:      24913. kBytes
   fftplans  :       5452. kBytes
   grid      :      50716. kBytes
   one-center:       2612. kBytes
   wavefun   :     134830. kBytes
 
     INWAV:  cpu time    0.0000: real time    0.0003
 Broyden mixing: mesh for mixing (old mesh)
   NGX = 61   NGY = 35   NGZ = 73
  (NGX  =180   NGY  =108   NGZ  =224)
  gives a total of 155855 points

 initial charge density was supplied:
 charge density of overlapping atoms calculated
 number of electron     840.0000000 magnetization      84.0000000
 keeping initial charge density in first step


--------------------------------------------------------------------------------------------------------


 Maximum index for non-local projection operator         1699
 Maximum index for augmentation-charges          348 (set IRDMAX)


--------------------------------------------------------------------------------------------------------


 First call to EWALD:  gamma=   0.121
 Maximum number of real-space cells 3x 4x 2
 Maximum number of reciprocal cells 3x 2x 4

    FEWALD:  cpu time    0.0031: real time    0.0031


--------------------------------------- Iteration      1(   1)  ---------------------------------------


    POTLOK:  cpu time    0.1992: real time    0.2168
    SETDIJ:  cpu time    0.0179: real time    0.0260
     EDDAV:  cpu time   36.3632: real time   36.4348
       DOS:  cpu time    0.0018: real time    0.0037
    --------------------------------------------
      LOOP:  cpu time   36.5821: real time   36.6813

 eigenvalue-minimisations  : 11520
 total energy-change (2. order) : 0.5750345E+04  (-0.3342604E+05)
 number of electron     840.0000000 magnetization      84.0000000
 augmentation part      840.0000000 magnetization      84.0000000

 DIPCOR: dipole corrections for dipol
 direction  3 min pos   146,
 dipolmoment           0.000000      0.000000      0.000555 electrons x Angstroem
 Tr[quadrupol]    -28139.952513

 energy correction for charged system         0.000000 eV
 dipol+quadrupol energy correction           -0.000000 eV
 added-field ion interaction          0.029652 eV  (added to PSCEN)


 Free energy of the ion-electron system (eV)
  ---------------------------------------------------
  alpha Z        PSCENC =      1136.52891216
  Ewald energy   TEWEN  =    320712.15126495
  -Hartree energ DENC   =   -407693.29090385
  -exchange      EXHF   =         0.00000000
  -V(xc)+E(xc)   XCENC  =      2639.50152214
  PAW double counting   =     80877.98658263   -86492.33983107
  entropy T*S    EENTRO =        -0.02494527
  eigenvalues    EBANDS =      4045.54678377
  atomic energy  EATOM  =     90524.28610202
  Solvation  Ediel_sol  =         0.00000000
  ---------------------------------------------------
  free energy    TOTEN  =      5750.34548748 eV

  energy without entropy =     5750.37043275  energy(sigma->0) =     5750.35796011


--------------------------------------------------------------------------------------------------------




--------------------------------------- Iteration      1(   2)  ---------------------------------------


     EDDAV:  cpu time   36.1357: real time   36.1544
       DOS:  cpu time    0.0018: real time    0.0018
    --------------------------------------------
      LOOP:  cpu time   36.1375: real time   36.1562

 eigenvalue-minimisations  : 11520
 total energy-change (2. order) :-0.5790362E+04  (-0.5479164E+04)
 number of electron     840.0000000 magnetization      84.0000000
 augmentation part      840.0000000 magnetization      84.0000000

 DIPCOR: dipole corrections for dipol
 direction  3 min pos   146,
 dipolmoment           0.000000      0.000000      0.000555 electrons x Angstroem
 Tr[quadrupol]    -28139.952513

 energy correction for charged system         0.000000 eV
 dipol+quadrupol energy correction           -0.000000 eV
 added-field ion interaction          0.029652 eV  (added to PSCEN)


 Free energy of the ion-electron system (eV)
  ---------------------------------------------------
  alpha Z        PSCENC =      1136.52891216
  Ewald energy   TEWEN  =    320712.15126495
  -Hartree energ DENC   =   -407693.29090385
  -exchange      EXHF   =         0.00000000
  -V(xc)+E(xc)   XCENC  =      2639.50152214
  PAW double counting   =     80877.98658263   -86492.33983107
  entropy T*S    EENTRO =        -0.05744504
  eigenvalues    EBANDS =     -1744.78223774
  atomic energy  EATOM  =     90524.28610202
  Solvation  Ediel_sol  =         0.00000000
  ---------------------------------------------------
  free energy    TOTEN  =       -40.01603380 eV

  energy without entropy =      -39.95858876  energy(sigma->0) =      -39.98731128


--------------------------------------------------------------------------------------------------------




--------------------------------------- Iteration      1(   3)  ---------------------------------------


     EDDAV:  cpu time   38.7493: real time   38.7726
       DOS:  cpu time    0.0015: real time    0.0015
    --------------------------------------------
      LOOP:  cpu time   38.7508: real time   38.7741

 eigenvalue-minimisations  : 12480
 total energy-change (2. order) :-0.4503144E+03  (-0.4155037E+03)
 number of electron     840.0000000 magnetization      84.0000000
 augmentation part      840.0000000 magnetization      84.0000000

 DIPCOR: dipole corrections for dipol
 direction  3 min pos   146,
 dipolmoment           0.000000      0.000000      0.000555 electrons x Angstroem
 Tr[quadrupol]    -28139.952513

 energy correction for charged system         0.000000 eV
 dipol+quadrupol energy correction           -0.000000 eV
 added-field ion interaction          0.029652 eV  (added to PSCEN)


 Free energy of the ion-electron system (eV)
  ---------------------------------------------------
  alpha Z        PSCENC =      1136.52891216
  Ewald energy   TEWEN  =    320712.15126495
  -Hartree energ DENC   =   -407693.29090385
  -exchange      EXHF   =         0.00000000
  -V(xc)+E(xc)   XCENC  =      2639.50152214
  PAW double counting   =     80877.98658263   -86492.33983107
  entropy T*S    EENTRO =        -0.07806654
  eigenvalues    EBANDS =     -2195.07606230
  atomic energy  EATOM  =     90524.28610202
  Solvation  Ediel_sol  =         0.00000000
  ---------------------------------------------------
  free energy    TOTEN  =      -490.33047985 eV

  energy without entropy =     -490.25241332  energy(sigma->0) =     -490.29144659


--------------------------------------------------------------------------------------------------------




--------------------------------------- Iteration      1(   4)  ---------------------------------------


     EDDAV:  cpu time   39.2722: real time   39.2930
       DOS:  cpu time    0.0014: real time    0.0014
    --------------------------------------------
      LOOP:  cpu time   39.2737: real time   39.2945

 eigenvalue-minimisations  : 12672
 total energy-change (2. order) :-0.1037495E+02  (-0.1031388E+02)
 number of electron     840.0000000 magnetization      84.0000000
 augmentation part      840.0000000 magnetization      84.0000000

 DIPCOR: dipole corrections for dipol
 direction  3 min pos   146,
 dipolmoment           0.000000      0.000000      0.000555 electrons x Angstroem
 Tr[quadrupol]    -28139.952513

 energy correction for charged system         0.000000 eV
 dipol+quadrupol energy correction           -0.000000 eV
 added-field ion interaction          0.029652 eV  (added to PSCEN)


 Free energy of the ion-electron system (eV)
  ---------------------------------------------------
  alpha Z        PSCENC =      1136.52891216
  Ewald energy   TEWEN  =    320712.15126495
  -Hartree energ DENC   =   -407693.29090385
  -exchange      EXHF   =         0.00000000
  -V(xc)+E(xc)   XCENC  =      2639.50152214
  PAW double counting   =     80877.98658263   -86492.33983107
  entropy T*S    EENTRO =        -0.07881360
  eigenvalues    EBANDS =     -2205.45026765
  atomic energy  EATOM  =     90524.28610202
  Solvation  Ediel_sol  =         0.00000000
  ---------------------------------------------------
  free energy    TOTEN  =      -500.70543227 eV

  energy without entropy =     -500.62661867  energy(sigma->0) =     -500.66602547


--------------------------------------------------------------------------------------------------------




--------------------------------------- Iteration      1(   5)  ---------------------------------------


     EDDAV:  cpu time   50.8280: real time   50.8886
       DOS:  cpu time    0.0016: real time    0.0016
    --------------------------------------------
      LOOP:  cpu time   50.8297: real time   50.8902

 eigenvalue-minimisations  : 16848
 total energy-change (2. order) :-0.2358607E+00  (-0.2358511E+00)
 number of electron     840.0000000 magnetization      84.0000000
 augmentation part      840.0000000 magnetization      84.0000000

 DIPCOR: dipole corrections for dipol
 direction  3 min pos   146,
 dipolmoment           0.000000      0.000000      0.000555 electrons x Angstroem
 Tr[quadrupol]    -28139.952513

 energy correction for charged system         0.000000 eV
 dipol+quadrupol energy correction           -0.000000 eV
 added-field ion interaction          0.029652 eV  (added to PSCEN)


 Free energy of the ion-electron system (eV)
  ---------------------------------------------------
  alpha Z        PSCENC =      1136.52891216
  Ewald energy   TEWEN  =    320712.15126495
  -Hartree energ DENC   =   -407693.29090385
  -exchange      EXHF   =         0.00000000
  -V(xc)+E(xc)   XCENC  =      2639.50152214
  PAW double counting   =     80877.98658263   -86492.33983107
  entropy T*S    EENTRO =        -0.07880775
  eigenvalues    EBANDS =     -2205.68613423
  atomic energy  EATOM  =     90524.28610202
  Solvation  Ediel_sol  =         0.00000000
  ---------------------------------------------------
  free energy    TOTEN  =      -500.94129300 eV

  energy without entropy =     -500.86248525  energy(sigma->0) =     -500.90188913


--------------------------------------------------------------------------------------------------------




--------------------------------------- Iteration      1(   6)  ---------------------------------------


     EDDAV:  cpu time   51.7669: real time   51.8065
       DOS:  cpu time    0.0015: real time    0.0015
    --------------------------------------------
      LOOP:  cpu time   51.7684: real time   51.8080

 eigenvalue-minimisations  : 17376
 total energy-change (2. order) :-0.4546295E-02  (-0.4546201E-02)
 number of electron     840.0000000 magnetization      84.0000000
 augmentation part      840.0000000 magnetization      84.0000000

 DIPCOR: dipole corrections for dipol
 direction  3 min pos   146,
 dipolmoment           0.000000      0.000000      0.000555 electrons x Angstroem
 Tr[quadrupol]    -28139.952513

 energy correction for charged system         0.000000 eV
 dipol+quadrupol energy correction           -0.000000 eV
 added-field ion interaction          0.029652 eV  (added to PSCEN)


 Free energy of the ion-electron system (eV)
  ---------------------------------------------------
  alpha Z        PSCENC =      1136.52891216
  Ewald energy   TEWEN  =    320712.15126495
  -Hartree energ DENC   =   -407693.29090385
  -exchange      EXHF   =         0.00000000
  -V(xc)+E(xc)   XCENC  =      2639.50152214
  PAW double counting   =     80877.98658263   -86492.33983107
  entropy T*S    EENTRO =        -0.07880383
  eigenvalues    EBANDS =     -2205.69068444
  atomic energy  EATOM  =     90524.28610202
  Solvation  Ediel_sol  =         0.00000000
  ---------------------------------------------------
  free energy    TOTEN  =      -500.94583929 eV

  energy without entropy =     -500.86703546  energy(sigma->0) =     -500.90643738


--------------------------------------------------------------------------------------------------------




--------------------------------------- Iteration      1(   7)  ---------------------------------------


     EDDAV:  cpu time   50.6668: real time   50.6946
       DOS:  cpu time    0.0017: real time    0.0017
    CHARGE:  cpu time    1.6087: real time    1.6120
    MIXING:  cpu time    0.0045: real time    0.0048
    --------------------------------------------
      LOOP:  cpu time   52.2817: real time   52.3132

 eigenvalue-minimisations  : 17040
 total energy-change (2. order) :-0.2938055E-03  (-0.2938035E-03)
 number of electron     840.0001304 magnetization      82.5300228
 augmentation part      472.5388092 magnetization      70.2159163

 DIPCOR: dipole corrections for dipol
 direction  3 min pos   146,
 dipolmoment           0.000000      0.000000      0.000555 electrons x Angstroem
 Tr[quadrupol]    -28139.952513

 energy correction for charged system         0.000000 eV
 dipol+quadrupol energy correction           -0.000000 eV
 added-field ion interaction          0.029652 eV  (added to PSCEN)


 Broyden mixing:
  rms(total) = 0.86401E+01    rms(broyden)= 0.86398E+01
  rms(prec ) = 0.90664E+01
  weight for this iteration     100.00

 Free energy of the ion-electron system (eV)
  ---------------------------------------------------
  alpha Z        PSCENC =      1136.52891216
  Ewald energy   TEWEN  =    320712.15126495
  -Hartree energ DENC   =   -407693.29090385
  -exchange      EXHF   =         0.00000000
  -V(xc)+E(xc)   XCENC  =      2639.50152214
  PAW double counting   =     80877.98658263   -86492.33983107
  entropy T*S    EENTRO =        -0.07880382
  eigenvalues    EBANDS =     -2205.69097826
  atomic energy  EATOM  =     90524.28610202
  Solvation  Ediel_sol  =         0.00000000
  ---------------------------------------------------
  free energy    TOTEN  =      -500.94613310 eV

  energy without entropy =     -500.86732928  energy(sigma->0) =     -500.90673119


--------------------------------------------------------------------------------------------------------




--------------------------------------- Iteration      1(   8)  ---------------------------------------


    POTLOK:  cpu time    0.1695: real time    0.1701
    SETDIJ:  cpu time    0.0166: real time    0.0166
    EDDIAG:  cpu time    7.2734: real time    7.2794
  RMM-DIIS:  cpu time   19.0588: real time   19.0770
    ORTHCH:  cpu time    1.9475: real time    1.9483
       DOS:  cpu time    0.0013: real time    0.0013
    CHARGE:  cpu time    1.6094: real time    1.6099
    MIXING:  cpu time    0.0045: real time    0.0072
    --------------------------------------------
      LOOP:  cpu time   30.0810: real time   30.1098

 eigenvalue-minimisations  : 11573
 total energy-change (2. order) :-0.1357420E+02  (-0.9098319E+02)
 number of electron     840.0001601 magnetization      81.0072850
 augmentation part      552.7255650 magnetization      75.0219382

 DIPCOR: dipole corrections for dipol
 direction  3 min pos   141,
 dipolmoment           0.000000      0.000000     -0.043422 electrons x Angstroem
 Tr[quadrupol]    -28142.175867

 energy correction for charged system         0.000000 eV
 dipol+quadrupol energy correction           -0.000054 eV
 added-field ion interaction         -1.334069 eV  (added to PSCEN)


 Broyden mixing:
  rms(total) = 0.12709E+02    rms(broyden)= 0.12708E+02
  rms(prec ) = 0.13471E+02
  weight for this iteration     100.00

 eigenvalues of (default mixing * dielectric matrix)
  average eigenvalue GAMMA=   0.2951
  0.2951

 Free energy of the ion-electron system (eV)
  ---------------------------------------------------
  alpha Z        PSCENC =      1135.16513748
  Ewald energy   TEWEN  =    320712.15126495
  -Hartree energ DENC   =   -405775.96341794
  -exchange      EXHF   =         0.00000000
  -V(xc)+E(xc)   XCENC  =      2538.86723456
  PAW double counting   =     85160.20536513   -90403.28100471
  entropy T*S    EENTRO =        -0.04492781
  eigenvalues    EBANDS =     -4405.90608250
  atomic energy  EATOM  =     90524.28610202
  Solvation  Ediel_sol  =         0.00000000
  ---------------------------------------------------
  free energy    TOTEN  =      -514.52032881 eV

  energy without entropy =     -514.47540100  energy(sigma->0) =     -514.49786491


--------------------------------------------------------------------------------------------------------




--------------------------------------- Iteration      1(   9)  ---------------------------------------


    POTLOK:  cpu time    0.2115: real time    0.2135
    SETDIJ:  cpu time    0.0166: real time    0.0166
    EDDIAG:  cpu time    7.2569: real time    7.2599
  RMM-DIIS:  cpu time   19.1537: real time   19.1651
    ORTHCH:  cpu time    3.5305: real time    3.5319
       DOS:  cpu time    0.0102: real time    0.0102
    CHARGE:  cpu time    1.8767: real time    1.8788
    MIXING:  cpu time    0.0052: real time    0.0052
    --------------------------------------------
      LOOP:  cpu time   32.0612: real time   32.0811

 eigenvalue-minimisations  : 11608
 total energy-change (2. order) : 0.5612328E+01  (-0.3079391E+02)
 number of electron     840.0001448 magnetization      79.2100294
 augmentation part      526.2554098 magnetization      70.1392625

 DIPCOR: dipole corrections for dipol
 direction  3 min pos   141,
 dipolmoment           0.000000      0.000000      0.007035 electrons x Angstroem
 Tr[quadrupol]    -28139.627982

 energy correction for charged system         0.000000 eV
 dipol+quadrupol energy correction           -0.000001 eV
 added-field ion interaction          0.216133 eV  (added to PSCEN)


 Broyden mixing:
  rms(total) = 0.10663E+02    rms(broyden)= 0.10662E+02
  rms(prec ) = 0.11478E+02
  weight for this iteration     100.00

 eigenvalues of (default mixing * dielectric matrix)
  average eigenvalue GAMMA=   0.3814
  0.5545  0.2083

 Free energy of the ion-electron system (eV)
  ---------------------------------------------------
  alpha Z        PSCENC =      1136.71539204
  Ewald energy   TEWEN  =    320712.15126495
  -Hartree energ DENC   =   -406119.86511197
  -exchange      EXHF   =         0.00000000
  -V(xc)+E(xc)   XCENC  =      2561.71131854
  PAW double counting   =     87070.24606817   -92506.71982786
  entropy T*S    EENTRO =        -0.11811464
  eigenvalues    EBANDS =     -3887.31509233
  atomic energy  EATOM  =     90524.28610202
  Solvation  Ediel_sol  =         0.00000000
  ---------------------------------------------------
  free energy    TOTEN  =      -508.90800109 eV

  energy without entropy =     -508.78988644  energy(sigma->0) =     -508.84894376


--------------------------------------------------------------------------------------------------------




--------------------------------------- Iteration      1(  10)  ---------------------------------------


    POTLOK:  cpu time    0.3007: real time    0.3016
    SETDIJ:  cpu time    0.0385: real time    0.0386
    EDDIAG:  cpu time    8.3244: real time    8.3289
  RMM-DIIS:  cpu time   18.9823: real time   18.9941
    ORTHCH:  cpu time    1.9785: real time    1.9799
       DOS:  cpu time    0.0014: real time    0.0014
    CHARGE:  cpu time    1.6224: real time    1.6232
    MIXING:  cpu time    0.0045: real time    0.0045
    --------------------------------------------
      LOOP:  cpu time   31.2526: real time   31.2722

 eigenvalue-minimisations  : 11563
 total energy-change (2. order) : 0.9202131E+02  (-0.7616519E+01)
 number of electron     840.0001465 magnetization      76.3359409
 augmentation part      521.0987470 magnetization      64.8821006

 DIPCOR: dipole corrections for dipol
 direction  3 min pos   131,
 dipolmoment           0.000000      0.000000      0.096605 electrons x Angstroem
 Tr[quadrupol]    -28147.462780

 energy correction for charged system         0.000000 eV
 dipol+quadrupol energy correction           -0.000268 eV
 added-field ion interaction         -1.423090 eV  (added to PSCEN)


 Broyden mixing:
  rms(total) = 0.14135E+01    rms(broyden)= 0.14127E+01
  rms(prec ) = 0.14841E+01
  weight for this iteration     100.00

 eigenvalues of (default mixing * dielectric matrix)
  average eigenvalue GAMMA=   0.6279
  1.1201  0.5612  0.2024

 Free energy of the ion-electron system (eV)
  ---------------------------------------------------
  alpha Z        PSCENC =      1135.07590251
  Ewald energy   TEWEN  =    320712.15126495
  -Hartree energ DENC   =   -406669.94792608
  -exchange      EXHF   =         0.00000000
  -V(xc)+E(xc)   XCENC  =      2570.98864021
  PAW double counting   =     88911.51127533   -94497.26172327
  entropy T*S    EENTRO =        -0.07032425
  eigenvalues    EBANDS =     -3103.61990145
  atomic energy  EATOM  =     90524.28610202
  Solvation  Ediel_sol  =         0.00000000
  ---------------------------------------------------
  free energy    TOTEN  =      -416.88669002 eV

  energy without entropy =     -416.81636578  energy(sigma->0) =     -416.85152790


--------------------------------------------------------------------------------------------------------




--------------------------------------- Iteration      1(  11)  ---------------------------------------


    POTLOK:  cpu time    0.1687: real time    0.1701
    SETDIJ:  cpu time    0.0167: real time    0.0167
    EDDIAG:  cpu time    7.2489: real time    7.2521
  RMM-DIIS:  cpu time   19.0973: real time   19.1068
    ORTHCH:  cpu time    1.9450: real time    1.9470
       DOS:  cpu time    0.0013: real time    0.0013
    CHARGE:  cpu time    1.6096: real time    1.6104
    MIXING:  cpu time    0.0047: real time    0.0047
    --------------------------------------------
      LOOP:  cpu time   30.0922: real time   30.1093

 eigenvalue-minimisations  : 11608
 total energy-change (2. order) : 0.3093931E+01  (-0.7490848E+00)
 number of electron     840.0001316 magnetization      76.1073305
 augmentation part      515.8046505 magnetization      65.8434187

 DIPCOR: dipole corrections for dipol
 direction  3 min pos   140,
 dipolmoment           0.000000      0.000000     -0.582733 electrons x Angstroem
 Tr[quadrupol]    -28152.097048

 energy correction for charged system         0.000000 eV
 dipol+quadrupol energy correction           -0.009756 eV
 added-field ion interaction        -15.254768 eV  (added to PSCEN)


 Broyden mixing:
  rms(total) = 0.33663E+01    rms(broyden)= 0.33661E+01
  rms(prec ) = 0.40660E+01
  weight for this iteration     100.00

 eigenvalues of (default mixing * dielectric matrix)
  average eigenvalue GAMMA=   0.5112
  1.1570  0.5446  0.2058  0.1374

 Free energy of the ion-electron system (eV)
  ---------------------------------------------------
  alpha Z        PSCENC =      1121.23473602
  Ewald energy   TEWEN  =    320712.15126495
  -Hartree energ DENC   =   -406959.59688307
  -exchange      EXHF   =         0.00000000
  -V(xc)+E(xc)   XCENC  =      2579.31454460
  PAW double counting   =     91414.61756060   -97105.02911707
  entropy T*S    EENTRO =        -0.06084760
  eigenvalues    EBANDS =     -2700.71011927
  atomic energy  EATOM  =     90524.28610202
  Solvation  Ediel_sol  =         0.00000000
  ---------------------------------------------------
  free energy    TOTEN  =      -413.79275882 eV

  energy without entropy =     -413.73191122  energy(sigma->0) =     -413.76233502


--------------------------------------------------------------------------------------------------------




--------------------------------------- Iteration      1(  12)  ---------------------------------------


    POTLOK:  cpu time    0.1690: real time    0.1697
    SETDIJ:  cpu time    0.0168: real time    0.0168
    EDDIAG:  cpu time    7.2765: real time    7.2805
  RMM-DIIS:  cpu time   19.0112: real time   19.0277
    ORTHCH:  cpu time    1.9931: real time    1.9943
       DOS:  cpu time    0.0013: real time    0.0013
    CHARGE:  cpu time    1.6049: real time    1.6058
    MIXING:  cpu time    0.0051: real time    0.0051
    --------------------------------------------
      LOOP:  cpu time   30.0779: real time   30.1011

 eigenvalue-minimisations  : 11633
 total energy-change (2. order) :-0.1092843E+01  (-0.2158942E+00)
 number of electron     840.0001566 magnetization      74.0860291
 augmentation part      515.9707338 magnetization      63.9115531

 DIPCOR: dipole corrections for dipol
 direction  3 min pos   130,
 dipolmoment           0.000000      0.000000      0.507378 electrons x Angstroem
 Tr[quadrupol]    -28152.562729

 energy correction for charged system         0.000000 eV
 dipol+quadrupol energy correction           -0.007396 eV
 added-field ion interaction         -9.780476 eV  (added to PSCEN)


 Broyden mixing:
  rms(total) = 0.36116E+01    rms(broyden)= 0.36113E+01
  rms(prec ) = 0.43546E+01
  weight for this iteration     100.00

 eigenvalues of (default mixing * dielectric matrix)
  average eigenvalue GAMMA=   0.6138
  1.5565  0.6327  0.6327  0.2004  0.0468

 Free energy of the ion-electron system (eV)
  ---------------------------------------------------
  alpha Z        PSCENC =      1126.71138779
  Ewald energy   TEWEN  =    320712.15126495
  -Hartree energ DENC   =   -406960.50119974
  -exchange      EXHF   =         0.00000000
  -V(xc)+E(xc)   XCENC  =      2578.21198060
  PAW double counting   =     91561.50902354   -97255.40135584
  entropy T*S    EENTRO =        -0.06115988
  eigenvalues    EBANDS =     -2701.79164544
  atomic energy  EATOM  =     90524.28610202
  Solvation  Ediel_sol  =         0.00000000
  ---------------------------------------------------
  free energy    TOTEN  =      -414.88560200 eV

  energy without entropy =     -414.82444212  energy(sigma->0) =     -414.85502206


--------------------------------------------------------------------------------------------------------




--------------------------------------- Iteration      1(  13)  ---------------------------------------


    POTLOK:  cpu time    0.1700: real time    0.1715
    SETDIJ:  cpu time    0.0166: real time    0.0166
    EDDIAG:  cpu time    7.2630: real time    7.2666
  RMM-DIIS:  cpu time   19.1257: real time   19.1400
    ORTHCH:  cpu time    1.9479: real time    1.9505
       DOS:  cpu time    0.0013: real time    0.0013
    CHARGE:  cpu time    1.6321: real time    1.6326
    MIXING:  cpu time    0.0052: real time    0.0052
    --------------------------------------------
      LOOP:  cpu time   30.1618: real time   30.1842

 eigenvalue-minimisations  : 11617
 total energy-change (2. order) : 0.4931774E+01  (-0.1574474E+00)
 number of electron     840.0001421 magnetization      72.2427929
 augmentation part      518.5030265 magnetization      63.1200066

 DIPCOR: dipole corrections for dipol
 direction  3 min pos   139,
 dipolmoment           0.000000      0.000000     -0.229968 electrons x Angstroem
 Tr[quadrupol]    -28154.608190

 energy correction for charged system         0.000000 eV
 dipol+quadrupol energy correction           -0.001519 eV
 added-field ion interaction         -4.974779 eV  (added to PSCEN)


 Broyden mixing:
  rms(total) = 0.72286E+00    rms(broyden)= 0.72223E+00
  rms(prec ) = 0.79639E+00
  weight for this iteration     100.00

 eigenvalues of (default mixing * dielectric matrix)
  average eigenvalue GAMMA=   0.6684
  1.8385  0.6906  0.6906  0.5434  0.2007  0.0464

 Free energy of the ion-electron system (eV)
  ---------------------------------------------------
  alpha Z        PSCENC =      1131.52296159
  Ewald energy   TEWEN  =    320712.15126495
  -Hartree energ DENC   =   -406958.74696677
  -exchange      EXHF   =         0.00000000
  -V(xc)+E(xc)   XCENC  =      2574.60705952
  PAW double counting   =     92823.14353521   -98544.54391867
  entropy T*S    EENTRO =        -0.06356434
  eigenvalues    EBANDS =     -2672.31030103
  atomic energy  EATOM  =     90524.28610202
  Solvation  Ediel_sol  =         0.00000000
  ---------------------------------------------------
  free energy    TOTEN  =      -409.95382752 eV

  energy without entropy =     -409.89026319  energy(sigma->0) =     -409.92204536


--------------------------------------------------------------------------------------------------------




--------------------------------------- Iteration      1(  14)  ---------------------------------------


    POTLOK:  cpu time    0.1714: real time    0.1722
    SETDIJ:  cpu time    0.0167: real time    0.0167
    EDDIAG:  cpu time    7.2753: real time    7.2793
  RMM-DIIS:  cpu time   19.0978: real time   19.1826
    ORTHCH:  cpu time    1.9375: real time    1.9423
       DOS:  cpu time    0.0013: real time    0.0013
    CHARGE:  cpu time    1.6197: real time    1.6206
    MIXING:  cpu time    0.0054: real time    0.0054
    --------------------------------------------
      LOOP:  cpu time   30.1251: real time   30.2204

 eigenvalue-minimisations  : 11629
 total energy-change (2. order) :-0.3005514E+00  (-0.2401291E-01)
 number of electron     840.0001485 magnetization      69.9767094
 augmentation part      519.0077150 magnetization      61.2139049

 DIPCOR: dipole corrections for dipol
 direction  3 min pos   130,
 dipolmoment           0.000000      0.000000      0.339730 electrons x Angstroem
 Tr[quadrupol]    -28156.390994

 energy correction for charged system         0.000000 eV
 dipol+quadrupol energy correction           -0.003316 eV
 added-field ion interaction         -6.548816 eV  (added to PSCEN)


 Broyden mixing:
  rms(total) = 0.10128E+01    rms(broyden)= 0.10127E+01
  rms(prec ) = 0.12297E+01
  weight for this iteration     100.00

 eigenvalues of (default mixing * dielectric matrix)
  average eigenvalue GAMMA=   0.7088
  1.9894  0.7730  0.7730  0.5895  0.5895  0.2007  0.0464

 Free energy of the ion-electron system (eV)
  ---------------------------------------------------
  alpha Z        PSCENC =      1129.94712852
  Ewald energy   TEWEN  =    320712.15126495
  -Hartree energ DENC   =   -407019.91505409
  -exchange      EXHF   =         0.00000000
  -V(xc)+E(xc)   XCENC  =      2573.13888462
  PAW double counting   =     93519.04262786   -99257.26052253
  entropy T*S    EENTRO =        -0.06381058
  eigenvalues    EBANDS =     -2591.58099973
  atomic energy  EATOM  =     90524.28610202
  Solvation  Ediel_sol  =         0.00000000
  ---------------------------------------------------
  free energy    TOTEN  =      -410.25437896 eV

  energy without entropy =     -410.19056838  energy(sigma->0) =     -410.22247367


--------------------------------------------------------------------------------------------------------




--------------------------------------- Iteration      1(  15)  ---------------------------------------


    POTLOK:  cpu time    0.1706: real time    0.1709
    SETDIJ:  cpu time    0.0166: real time    0.0166
    EDDIAG:  cpu time    7.2583: real time    7.2623
  RMM-DIIS:  cpu time   18.9462: real time   19.0515
    ORTHCH:  cpu time    1.9522: real time    1.9562
       DOS:  cpu time    0.0013: real time    0.0013
    CHARGE:  cpu time    1.6326: real time    1.6335
    MIXING:  cpu time    0.0057: real time    0.0057
    --------------------------------------------
      LOOP:  cpu time   29.9835: real time   30.0980

 eigenvalue-minimisations  : 11577
 total energy-change (2. order) :-0.2553673E+01  (-0.3512784E-01)
 number of electron     840.0001404 magnetization      67.3305458
 augmentation part      519.1695413 magnetization      59.2673600

 DIPCOR: dipole corrections for dipol
 direction  3 min pos   138,
 dipolmoment           0.000000      0.000000     -0.323312 electrons x Angstroem
 Tr[quadrupol]    -28158.410455

 energy correction for charged system         0.000000 eV
 dipol+quadrupol energy correction           -0.003003 eV
 added-field ion interaction         -5.524463 eV  (added to PSCEN)


 Broyden mixing:
  rms(total) = 0.96415E+00    rms(broyden)= 0.96403E+00
  rms(prec ) = 0.11716E+01
  weight for this iteration     100.00

 eigenvalues of (default mixing * dielectric matrix)
  average eigenvalue GAMMA=   0.8099
  2.4820  1.3734  0.2007  0.6612  0.6612  0.5969  0.4574  0.0464

 Free energy of the ion-electron system (eV)
  ---------------------------------------------------
  alpha Z        PSCENC =      1130.97179443
  Ewald energy   TEWEN  =    320712.15126495
  -Hartree energ DENC   =   -407102.92100969
  -exchange      EXHF   =         0.00000000
  -V(xc)+E(xc)   XCENC  =      2570.23155126
  PAW double counting   =     94013.63871430   -99763.55194672
  entropy T*S    EENTRO =        -0.06177474
  eigenvalues    EBANDS =     -2497.55274816
  atomic energy  EATOM  =     90524.28610202
  Solvation  Ediel_sol  =         0.00000000
  ---------------------------------------------------
  free energy    TOTEN  =      -412.80805236 eV

  energy without entropy =     -412.74627762  energy(sigma->0) =     -412.77716499


--------------------------------------------------------------------------------------------------------




--------------------------------------- Iteration      1(  16)  ---------------------------------------


    POTLOK:  cpu time    0.1692: real time    0.1696
    SETDIJ:  cpu time    0.0166: real time    0.0166
    EDDIAG:  cpu time    7.2674: real time    7.2714
  RMM-DIIS:  cpu time   19.0377: real time   19.0496
    ORTHCH:  cpu time    1.9310: real time    1.9349
       DOS:  cpu time    0.0013: real time    0.0013
    CHARGE:  cpu time    1.6163: real time    1.6171
    MIXING:  cpu time    0.0060: real time    0.0060
    --------------------------------------------
      LOOP:  cpu time   30.0456: real time   30.0666

 eigenvalue-minimisations  : 11596
 total energy-change (2. order) :-0.1780893E+01  (-0.4052506E-01)
 number of electron     840.0001397 magnetization      65.3919703
 augmentation part      519.1959735 magnetization      58.2105241

 DIPCOR: dipole corrections for dipol
 direction  3 min pos   142,
 dipolmoment           0.000000      0.000000     -0.429448 electrons x Angstroem
 Tr[quadrupol]    -28160.485717

 energy correction for charged system         0.000000 eV
 dipol+quadrupol energy correction           -0.005299 eV
 added-field ion interaction        -15.146163 eV  (added to PSCEN)


 Broyden mixing:
  rms(total) = 0.98302E+00    rms(broyden)= 0.98300E+00
  rms(prec ) = 0.12042E+01
  weight for this iteration     100.00

 eigenvalues of (default mixing * dielectric matrix)
  average eigenvalue GAMMA=   0.9249
  3.2233  1.5868  0.7325  0.7325  0.6300  0.6300  0.5415  0.2007  0.0464

 Free energy of the ion-electron system (eV)
  ---------------------------------------------------
  alpha Z        PSCENC =      1121.34779915
  Ewald energy   TEWEN  =    320712.15126495
  -Hartree energ DENC   =   -407202.27982906
  -exchange      EXHF   =         0.00000000
  -V(xc)+E(xc)   XCENC  =      2568.64818707
  PAW double counting   =     94346.63379343  -100103.71871399
  entropy T*S    EENTRO =        -0.06133041
  eigenvalues    EBANDS =     -2381.59621820
  atomic energy  EATOM  =     90524.28610202
  Solvation  Ediel_sol  =         0.00000000
  ---------------------------------------------------
  free energy    TOTEN  =      -414.58894503 eV

  energy without entropy =     -414.52761462  energy(sigma->0) =     -414.55827982


--------------------------------------------------------------------------------------------------------




--------------------------------------- Iteration      1(  17)  ---------------------------------------


    POTLOK:  cpu time    0.1700: real time    0.1704
    SETDIJ:  cpu time    0.0166: real time    0.0166
    EDDIAG:  cpu time    7.2600: real time    7.2657
  RMM-DIIS:  cpu time   19.0207: real time   19.0330
    ORTHCH:  cpu time    1.9310: real time    1.9342
       DOS:  cpu time    0.0013: real time    0.0013
    CHARGE:  cpu time    1.6217: real time    1.6225
    MIXING:  cpu time    0.0062: real time    0.0062
    --------------------------------------------
      LOOP:  cpu time   30.0276: real time   30.0499

 eigenvalue-minimisations  : 11576
 total energy-change (2. order) :-0.2331721E+01  (-0.6126905E-01)
 number of electron     840.0001475 magnetization      64.0578316
 augmentation part      519.1293507 magnetization      57.7342825

 DIPCOR: dipole corrections for dipol
 direction  3 min pos   133,
 dipolmoment           0.000000      0.000000      0.165528 electrons x Angstroem
 Tr[quadrupol]    -28161.886192

 energy correction for charged system         0.000000 eV
 dipol+quadrupol energy correction           -0.000787 eV
 added-field ion interaction         -0.933607 eV  (added to PSCEN)


 Broyden mixing:
  rms(total) = 0.69567E+00    rms(broyden)= 0.69550E+00
  rms(prec ) = 0.84927E+00
  weight for this iteration     100.00

 eigenvalues of (default mixing * dielectric matrix)
  average eigenvalue GAMMA=   0.9741
  3.6971  1.7488  0.8125  0.8125  0.2007  0.6176  0.6176  0.5941  0.5941  0.0464

 Free energy of the ion-electron system (eV)
  ---------------------------------------------------
  alpha Z        PSCENC =      1135.56486636
  Ewald energy   TEWEN  =    320712.15126495
  -Hartree energ DENC   =   -407260.38161576
  -exchange      EXHF   =         0.00000000
  -V(xc)+E(xc)   XCENC  =      2566.96957860
  PAW double counting   =     94277.06012582  -100031.57969680
  entropy T*S    EENTRO =        -0.05931830
  eigenvalues    EBANDS =     -2340.93197327
  atomic energy  EATOM  =     90524.28610202
  Solvation  Ediel_sol  =         0.00000000
  ---------------------------------------------------
  free energy    TOTEN  =      -416.92066640 eV

  energy without entropy =     -416.86134809  energy(sigma->0) =     -416.89100725


--------------------------------------------------------------------------------------------------------




--------------------------------------- Iteration      1(  18)  ---------------------------------------


    POTLOK:  cpu time    0.1706: real time    0.1711
    SETDIJ:  cpu time    0.0167: real time    0.0167
    EDDIAG:  cpu time    7.2596: real time    7.2642
  RMM-DIIS:  cpu time   19.0076: real time   19.0225
    ORTHCH:  cpu time    1.9503: real time    1.9546
       DOS:  cpu time    0.0013: real time    0.0013
    CHARGE:  cpu time    1.6172: real time    1.6178
    MIXING:  cpu time    0.0069: real time    0.0121
    --------------------------------------------
      LOOP:  cpu time   30.0301: real time   30.0604

 eigenvalue-minimisations  : 11578
 total energy-change (2. order) :-0.2239771E+01  (-0.3591059E-01)
 number of electron     840.0001474 magnetization      62.6701345
 augmentation part      519.0186530 magnetization      56.9829024

 DIPCOR: dipole corrections for dipol
 direction  3 min pos   129,
 dipolmoment           0.000000      0.000000      0.235396 electrons x Angstroem
 Tr[quadrupol]    -28162.371542

 energy correction for charged system         0.000000 eV
 dipol+quadrupol energy correction           -0.001592 eV
 added-field ion interaction         -5.607591 eV  (added to PSCEN)


 Broyden mixing:
  rms(total) = 0.64804E+00    rms(broyden)= 0.64802E+00
  rms(prec ) = 0.79314E+00
  weight for this iteration     100.00

 eigenvalues of (default mixing * dielectric matrix)
  average eigenvalue GAMMA=   1.0980
  4.7315  1.7868  1.1823  1.0128  0.2007  0.6455  0.6455  0.6181  0.6181  0.5906
  0.0464

 Free energy of the ion-electron system (eV)
  ---------------------------------------------------
  alpha Z        PSCENC =      1130.89007787
  Ewald energy   TEWEN  =    320712.15126495
  -Hartree energ DENC   =   -407290.26846918
  -exchange      EXHF   =         0.00000000
  -V(xc)+E(xc)   XCENC  =      2565.48278013
  PAW double counting   =     94082.32688510   -99831.91798356
  entropy T*S    EENTRO =        -0.06037408
  eigenvalues    EBANDS =     -2312.05072056
  atomic energy  EATOM  =     90524.28610202
  Solvation  Ediel_sol  =         0.00000000
  ---------------------------------------------------
  free energy    TOTEN  =      -419.16043733 eV

  energy without entropy =     -419.10006325  energy(sigma->0) =     -419.13025029


--------------------------------------------------------------------------------------------------------




--------------------------------------- Iteration      1(  19)  ---------------------------------------


    POTLOK:  cpu time    0.1694: real time    0.1709
    SETDIJ:  cpu time    0.0167: real time    0.0167
    EDDIAG:  cpu time    7.2651: real time    7.2692
  RMM-DIIS:  cpu time   19.0363: real time   19.0484
    ORTHCH:  cpu time    3.3131: real time    3.3174
       DOS:  cpu time    0.0013: real time    0.0013
    CHARGE:  cpu time    1.6974: real time    1.6983
    MIXING:  cpu time    0.0255: real time    0.0255
    --------------------------------------------
      LOOP:  cpu time   31.5249: real time   31.5477

 eigenvalue-minimisations  : 11572
 total energy-change (2. order) :-0.2029231E+01  (-0.4740643E-01)
 number of electron     840.0001435 magnetization      61.4952616
 augmentation part      519.0517751 magnetization      56.5089672

 DIPCOR: dipole corrections for dipol
 direction  3 min pos   127,
 dipolmoment           0.000000      0.000000      0.086057 electrons x Angstroem
 Tr[quadrupol]    -28162.696512

 energy correction for charged system         0.000000 eV
 dipol+quadrupol energy correction           -0.000213 eV
 added-field ion interaction         -2.832383 eV  (added to PSCEN)


 Broyden mixing:
  rms(total) = 0.20746E+00    rms(broyden)= 0.20733E+00
  rms(prec ) = 0.23858E+00
  weight for this iteration     100.00

 eigenvalues of (default mixing * dielectric matrix)
  average eigenvalue GAMMA=   1.2427
  6.1068  2.2386  1.6675  0.2007  0.6922  0.6922  0.8091  0.6556  0.6556  0.6490
  0.4987  0.0464

 Free energy of the ion-electron system (eV)
  ---------------------------------------------------
  alpha Z        PSCENC =      1133.66666498
[...]


    POTLOK:  cpu time    0.1684: real time    0.1695
    SETDIJ:  cpu time    0.0197: real time    0.0197
    EDDIAG:  cpu time    7.2530: real time    7.2579
  RMM-DIIS:  cpu time   14.6880: real time   14.6968
    ORTHCH:  cpu time    1.9457: real time    1.9467
       DOS:  cpu time    0.0013: real time    0.0013
    CHARGE:  cpu time    1.6182: real time    1.6195
    MIXING:  cpu time    0.0054: real time    0.0054
    --------------------------------------------
      LOOP:  cpu time   25.6998: real time   25.7169

 eigenvalue-minimisations  :  8858
 total energy-change (2. order) : 0.4246845E-04  (-0.4088106E-06)
 number of electron     840.0002963 magnetization      59.5190086
 augmentation part      518.9220206 magnetization      55.6461738

 DIPCOR: dipole corrections for dipol
 direction  3 min pos   134,
 dipolmoment           0.000000      0.000000     -0.000846 electrons x Angstroem
 Tr[quadrupol]    -28159.214544

 energy correction for charged system         0.000000 eV
 dipol+quadrupol energy correction           -0.000000 eV
 added-field ion interaction          0.000432 eV  (added to PSCEN)


 eigenvalues of (default mixing * dielectric matrix)
  average eigenvalue GAMMA=   0.8223
  2.4361  0.0500  0.1186  0.9310  0.6552  0.7426

  free energy =  -0.423302558281E+03  energy without entropy=  -0.423246400724E+03


--------------------------------------------------------------------------------------------------------




--------------------------------------- Iteration      6(   8)  ---------------------------------------


    POTLOK:  cpu time    0.1706: real time    0.1716
    SETDIJ:  cpu time    0.0166: real time    0.0166
    EDDIAG:  cpu time    7.2879: real time    7.2915
  RMM-DIIS:  cpu time   11.1725: real time   11.1779
    ORTHCH:  cpu time    1.9496: real time    1.9504
       DOS:  cpu time    0.0013: real time    0.0013
    CHARGE:  cpu time    1.6297: real time    1.6301
    MIXING:  cpu time    0.0055: real time    0.0055
    --------------------------------------------
      LOOP:  cpu time   22.2336: real time   22.2450

 eigenvalue-minimisations  :  6605
 total energy-change (2. order) :-0.2537476E-05  (-0.6418759E-07)
 number of electron     840.0002963 magnetization      59.5189135
 augmentation part      518.9231811 magnetization      55.6462500

 DIPCOR: dipole corrections for dipol
 direction  3 min pos   135,
 dipolmoment           0.000000      0.000000     -0.000837 electrons x Angstroem
 Tr[quadrupol]    -28159.214118

 energy correction for charged system         0.000000 eV
 dipol+quadrupol energy correction           -0.000000 eV
 added-field ion interaction         -0.003376 eV  (added to PSCEN)


 eigenvalues of (default mixing * dielectric matrix)
  average eigenvalue GAMMA=   0.8351
  2.4338  0.0500  0.1186  0.9913  0.9913  0.6641  0.5964

  free energy =  -0.423302560819E+03  energy without entropy=  -0.423246405782E+03


--------------------------------------------------------------------------------------------------------




--------------------------------------- Iteration      6(   9)  ---------------------------------------


    POTLOK:  cpu time    0.1686: real time    0.1694
    SETDIJ:  cpu time    0.0167: real time    0.0167
    EDDIAG:  cpu time    7.2426: real time    7.2463
  RMM-DIIS:  cpu time   11.2216: real time   11.2267
    ORTHCH:  cpu time    1.9572: real time    1.9579
       DOS:  cpu time    0.0013: real time    0.0013
    CHARGE:  cpu time    1.6195: real time    1.6204
    MIXING:  cpu time    0.0058: real time    0.0058
    --------------------------------------------
      LOOP:  cpu time   22.2333: real time   22.2444

 eigenvalue-minimisations  :  6597
 total energy-change (2. order) :-0.7521230E-05  (-0.2142155E-07)
 number of electron     840.0002963 magnetization      59.5188159
 augmentation part      518.9223095 magnetization      55.6460991

 DIPCOR: dipole corrections for dipol
 direction  3 min pos   136,
 dipolmoment           0.000000      0.000000     -0.000841 electrons x Angstroem
 Tr[quadrupol]    -28159.213904

 energy correction for charged system         0.000000 eV
 dipol+quadrupol energy correction           -0.000000 eV
 added-field ion interaction         -0.007213 eV  (added to PSCEN)


 eigenvalues of (default mixing * dielectric matrix)
  average eigenvalue GAMMA=   0.8534
  2.3830  1.3940  0.0500  0.1186  0.9404  0.7702  0.6567  0.5146

  free energy =  -0.423302568340E+03  energy without entropy=  -0.423246412230E+03


--------------------------------------------------------------------------------------------------------




--------------------------------------- Iteration      6(  10)  ---------------------------------------


    POTLOK:  cpu time    0.1686: real time    0.1698
    SETDIJ:  cpu time    0.0169: real time    0.0169
    EDDIAG:  cpu time    7.2461: real time    7.2494
  RMM-DIIS:  cpu time   11.2588: real time   11.2639
    ORTHCH:  cpu time    1.9495: real time    1.9503
       DOS:  cpu time    0.0013: real time    0.0013
    CHARGE:  cpu time    1.6247: real time    1.6254
    MIXING:  cpu time    0.0059: real time    0.0059
    --------------------------------------------
      LOOP:  cpu time   22.2717: real time   22.2829

 eigenvalue-minimisations  :  6631
 total energy-change (2. order) :-0.1495710E-04  (-0.1819039E-07)
 number of electron     840.0002963 magnetization      59.5187068
 augmentation part      518.9229118 magnetization      55.6460791

 DIPCOR: dipole corrections for dipol
 direction  3 min pos   136,
 dipolmoment           0.000000      0.000000     -0.000777 electrons x Angstroem
 Tr[quadrupol]    -28159.213670

 energy correction for charged system         0.000000 eV
 dipol+quadrupol energy correction           -0.000000 eV
 added-field ion interaction         -0.006663 eV  (added to PSCEN)


 eigenvalues of (default mixing * dielectric matrix)
  average eigenvalue GAMMA=   0.9367
  2.2410  2.2410  1.0136  1.0136  0.0500  0.1186  0.6666  0.6353  0.4502

  free energy =  -0.423302583297E+03  energy without entropy=  -0.423246425480E+03


--------------------------------------------------------------------------------------------------------




--------------------------------------- Iteration      6(  11)  ---------------------------------------


    POTLOK:  cpu time    0.1690: real time    0.1698
    SETDIJ:  cpu time    0.0166: real time    0.0166
    EDDIAG:  cpu time    7.2412: real time    7.2444
  RMM-DIIS:  cpu time   10.7985: real time   10.8032
    ORTHCH:  cpu time    1.9226: real time    1.9234
       DOS:  cpu time    0.0013: real time    0.0013
    CHARGE:  cpu time    1.6137: real time    1.6147
    MIXING:  cpu time    0.0062: real time    0.0062
    --------------------------------------------
      LOOP:  cpu time   21.7692: real time   21.7796

 eigenvalue-minimisations  :  6074
 total energy-change (2. order) :-0.1850977E-04  (-0.1316412E-07)
 number of electron     840.0002963 magnetization      59.5186015
 augmentation part      518.9226403 magnetization      55.6459820

 DIPCOR: dipole corrections for dipol
 direction  3 min pos   136,
 dipolmoment           0.000000      0.000000     -0.000725 electrons x Angstroem
 Tr[quadrupol]    -28159.213457

 energy correction for charged system         0.000000 eV
 dipol+quadrupol energy correction           -0.000000 eV
 added-field ion interaction         -0.006222 eV  (added to PSCEN)


 eigenvalues of (default mixing * dielectric matrix)
  average eigenvalue GAMMA=   0.9905
  2.5651  2.5651  0.0500  0.1186  1.0035  1.0035  0.8748  0.6645  0.6199  0.4405

  free energy =  -0.423302601807E+03  energy without entropy=  -0.423246442024E+03


--------------------------------------------------------------------------------------------------------




--------------------------------------- Iteration      6(  12)  ---------------------------------------


    POTLOK:  cpu time    0.1688: real time    0.1694
    SETDIJ:  cpu time    0.0167: real time    0.0167
    EDDIAG:  cpu time    7.2923: real time    7.2952
  RMM-DIIS:  cpu time    9.5130: real time    9.5175
    ORTHCH:  cpu time    3.4508: real time    3.4678
       DOS:  cpu time    0.0013: real time    0.0013
    CHARGE:  cpu time    1.9260: real time    1.9269
    MIXING:  cpu time    0.0142: real time    0.0142
    --------------------------------------------
      LOOP:  cpu time   22.3831: real time   22.4090

 eigenvalue-minimisations  :  4314
 total energy-change (2. order) :-0.2122595E-04  (-0.1272365E-07)
 number of electron     840.0002963 magnetization      59.5184996
 augmentation part      518.9227549 magnetization      55.6458857

 DIPCOR: dipole corrections for dipol
 direction  3 min pos   135,
 dipolmoment           0.000000      0.000000     -0.000657 electrons x Angstroem
 Tr[quadrupol]    -28159.213254

 energy correction for charged system         0.000000 eV
 dipol+quadrupol energy correction           -0.000000 eV
 added-field ion interaction         -0.002652 eV  (added to PSCEN)


 eigenvalues of (default mixing * dielectric matrix)
  average eigenvalue GAMMA=   1.0356
  2.9538  2.5030  1.1394  1.1394  1.0881  0.0500  0.1186  0.6963  0.6499  0.6171
  0.4359

  free energy =  -0.423302623033E+03  energy without entropy=  -0.423246464037E+03


--------------------------------------------------------------------------------------------------------




--------------------------------------- Iteration      6(  13)  ---------------------------------------


    POTLOK:  cpu time    0.3545: real time    0.3545
    SETDIJ:  cpu time    0.0394: real time    0.0394
    EDDIAG:  cpu time    7.7473: real time    7.7522
  RMM-DIIS:  cpu time    9.9795: real time    9.9844
    ORTHCH:  cpu time    1.9553: real time    1.9561
       DOS:  cpu time    0.0012: real time    0.0012
    CHARGE:  cpu time    1.6195: real time    1.6205
    MIXING:  cpu time    0.0068: real time    0.0068
    --------------------------------------------
      LOOP:  cpu time   21.7035: real time   21.7152

 eigenvalue-minimisations  :  4972
 total energy-change (2. order) :-0.2019404E-04  (-0.1806815E-07)
 number of electron     840.0002963 magnetization      59.5183668
 augmentation part      518.9227336 magnetization      55.6457578

 DIPCOR: dipole corrections for dipol
 direction  3 min pos   135,
 dipolmoment           0.000000      0.000000     -0.000617 electrons x Angstroem
 Tr[quadrupol]    -28159.212927

 energy correction for charged system         0.000000 eV
 dipol+quadrupol energy correction           -0.000000 eV
 added-field ion interaction         -0.002490 eV  (added to PSCEN)


 eigenvalues of (default mixing * dielectric matrix)
  average eigenvalue GAMMA=   1.1578
  4.1292  2.2150  2.2150  0.0500  0.1186  1.0037  1.0037  0.8593  0.6643  0.6361
  0.5642  0.4348

  free energy =  -0.423302643227E+03  energy without entropy=  -0.423246484654E+03


--------------------------------------------------------------------------------------------------------




--------------------------------------- Iteration      6(  14)  ---------------------------------------


    POTLOK:  cpu time    0.1688: real time    0.1699
    SETDIJ:  cpu time    0.0167: real time    0.0167
    EDDIAG:  cpu time    7.2335: real time    7.2371
  RMM-DIIS:  cpu time   10.2663: real time   10.2721
    ORTHCH:  cpu time    1.9675: real time    1.9683
       DOS:  cpu time    0.0013: real time    0.0013
    CHARGE:  cpu time    1.6184: real time    1.6196
    MIXING:  cpu time    0.0073: real time    0.0073
    --------------------------------------------
      LOOP:  cpu time   21.2797: real time   21.2923

 eigenvalue-minimisations  :  5125
 total energy-change (2. order) :-0.1940601E-04  (-0.2974570E-07)
 number of electron     840.0002963 magnetization      59.5182899
 augmentation part      518.9226929 magnetization      55.6456997

 DIPCOR: dipole corrections for dipol
 direction  3 min pos   135,
 dipolmoment           0.000000      0.000000     -0.000525 electrons x Angstroem
 Tr[quadrupol]    -28159.212468

 energy correction for charged system         0.000000 eV
 dipol+quadrupol energy correction           -0.000000 eV
 added-field ion interaction         -0.002119 eV  (added to PSCEN)


 eigenvalues of (default mixing * dielectric matrix)
  average eigenvalue GAMMA=   1.3239
  6.3446  2.3647  2.3647  0.9999  1.0307  1.0307  0.0500  0.1186  0.7033  0.6512
  0.5983  0.5201  0.4334

  free energy =  -0.423302662633E+03  energy without entropy=  -0.423246504113E+03


--------------------------------------------------------------------------------------------------------




--------------------------------------- Iteration      6(  15)  ---------------------------------------


    POTLOK:  cpu time    0.1692: real time    0.1693
    SETDIJ:  cpu time    0.0166: real time    0.0166
    EDDIAG:  cpu time    7.2424: real time    7.2456
  RMM-DIIS:  cpu time    8.9525: real time    8.9576
    ORTHCH:  cpu time    2.0315: real time    2.0322
       DOS:  cpu time    0.0013: real time    0.0013
    CHARGE:  cpu time    1.6214: real time    1.6225
    MIXING:  cpu time    0.0074: real time    0.0074
    --------------------------------------------
      LOOP:  cpu time   20.0423: real time   20.0525

 eigenvalue-minimisations  :  3688
 total energy-change (2. order) :-0.5663009E-05  (-0.1122727E-07)
 number of electron     840.0002963 magnetization      59.5182678
 augmentation part      518.9227048 magnetization      55.6456873

 DIPCOR: dipole corrections for dipol
 direction  3 min pos   135,
 dipolmoment           0.000000      0.000000     -0.000464 electrons x Angstroem
 Tr[quadrupol]    -28159.212169

 energy correction for charged system         0.000000 eV
 dipol+quadrupol energy correction           -0.000000 eV
 added-field ion interaction         -0.001873 eV  (added to PSCEN)


 eigenvalues of (default mixing * dielectric matrix)
  average eigenvalue GAMMA=   1.3997
  7.9056  2.4071  2.4071  1.0931  1.0503  1.0503  0.0500  0.1186  0.7640  0.6419
  0.6202  0.6202  0.4445  0.4224

  free energy =  -0.423302668296E+03  energy without entropy=  -0.423246509713E+03


--------------------------------------------------------------------------------------------------------




--------------------------------------- Iteration      6(  16)  ---------------------------------------


    POTLOK:  cpu time    0.1691: real time    0.1706
    SETDIJ:  cpu time    0.0167: real time    0.0167
    EDDIAG:  cpu time    7.2341: real time    7.2373
  RMM-DIIS:  cpu time    7.9005: real time    7.9034
    ORTHCH:  cpu time    1.9574: real time    1.9580
       DOS:  cpu time    0.0013: real time    0.0013
    --------------------------------------------
      LOOP:  cpu time   17.2790: real time   17.2872

 eigenvalue-minimisations  :  2448
 total energy-change (2. order) :-0.6532209E-06  (-0.2388961E-08)
 number of electron     840.0002963 magnetization      59.5182678
 augmentation part      518.9227048 magnetization      55.6456873

 DIPCOR: dipole corrections for dipol
 direction  3 min pos   135,
 dipolmoment           0.000000      0.000000     -0.000449 electrons x Angstroem
 Tr[quadrupol]    -28159.212053

 energy correction for charged system         0.000000 eV
 dipol+quadrupol energy correction           -0.000000 eV
 added-field ion interaction         -0.001810 eV  (added to PSCEN)


  free energy =  -0.423302668949E+03  energy without entropy=  -0.423246510273E+03


--------------------------------------------------------------------------------------------------------




------------------------ aborting loop because EDIFF is reached ----------------------------------------


    CHARGE:  cpu time    1.6150: real time    1.6157
    FORLOC:  cpu time    0.0313: real time    0.0313
    FORNL :  cpu time    6.0763: real time    6.0785
    STRESS:  cpu time   18.0617: real time   18.0683
    FORCOR:  cpu time    0.1622: real time    0.1622
    FORHAR:  cpu time    0.0424: real time    0.0424
    MIXING:  cpu time    0.0078: real time    0.0078
    OFIELD:  cpu time    0.0001: real time    0.0001

  Number of pair interactions contributing to vdW energy:  292488
  Edisp (eV):   -6.24354
    FORVDW:  cpu time    0.0374: real time    0.0374

  FORCE on cell =-STRESS in cart. coord.  units (eV):
  Direction    XX          YY          ZZ          XY          YZ          ZX
  --------------------------------------------------------------------------------------
  Alpha Z  1136.49926  1136.49926  1136.49926
  Ewald  374429.05868374431.89480************    -0.15437     1.36114     0.14709
  Hartree395888.07769395891.26567************    -1.81612     0.52892     0.67305
  E(xc)   -4607.12730 -4607.10945 -4621.67639     0.02017     0.00855    -0.01946
  Local  ************************792511.22489     4.53042    -1.58599    -2.39151
  n-local  -692.64112  -687.26729  -751.03487    -2.68777    -0.19784    -0.80794
  augment 14770.53066 14768.02096 14861.14515    -0.33432    -0.07413     1.67335
  Kinetic  6486.84148  6485.51928  6595.27808    -0.19720    -0.15946     0.68463
  Fock        0.00000     0.00000     0.00000     0.00000     0.00000     0.00000
  vdW        -9.01973    -9.02144    -5.48805     0.00009    -0.00149    -0.00016
  -------------------------------------------------------------------------------------
  Total     -44.60763   -44.23863    -0.88037    -0.63909    -0.12031    -0.04096
  in kB     -22.57175   -22.38503    -0.44547    -0.32339    -0.06088    -0.02073
  external pressure =      -15.13 kB  Pullay stress =        0.00 kB



--------------------------------------------------------------------------------------------------------



  FREE ENERGIE OF THE ION-ELECTRON SYSTEM (eV)
  ---------------------------------------------------
  free  energy   TOTEN  =      -429.54621122 eV

  energy  without entropy=     -429.49005255  energy(sigma->0) =     -429.51813188
 
 d Force =-0.1637834E-04[-0.752E-04, 0.425E-04]  d Energy = 0.3531869E-04-0.517E-04
 d Force =-0.5654366E+02[-0.565E+02,-0.565E+02]  d Ewald  =-0.5654366E+02 0.167E-06


--------------------------------------------------------------------------------------------------------


    POTLOK:  cpu time    0.1881: real time    0.1884


--------------------------------------------------------------------------------------------------------


 Quasi-Newton relaxation of ions (Broydens 2nd method)
  g(Force)  = 0.866E-05   g(Stress)= 0.000E+00

 retain information from N=  1 steps
 eigenvalues of (default step * inverse Hessian matrix)
  average eigenvalue of G=   6.7967
 eigenvalue spectrum of G is  6.7967


--------------------------------------------------------------------------------------------------------


  
 reached required accuracy - stopping structural energy minimisation
     LOOP+:  cpu time  436.4888: real time  436.8155
    4ORBIT:  cpu time    0.0000: real time    0.0000

 total amount of memory used by VASP MPI-rank0   248523. kBytes
=======================================================================

   base      :      30000. kBytes
   nonlr-proj:      24913. kBytes
   fftplans  :       5452. kBytes
   grid      :      50716. kBytes
   one-center:       2612. kBytes
   wavefun   :     134830. kBytes
 
  
  
 General timing and accounting informations for this job:
 ========================================================
  
                  Total CPU time used (sec):     3941.052
                            User time (sec):     3927.369
                          System time (sec):       13.683
                         Elapsed time (sec):     3945.248
  
                   Maximum memory used (kb):      551228.
                   Average memory used (kb):           0.
  
                          Minor page faults:      1592887
                          Major page faults:            0
                 Voluntary context switches:         5776
