 vasp.5.4.4.18Apr17-6-g9f103f2a35 (build Jun 30 2017 19:19:18) complex          
  
 executed on         MareNostrum4 date 2022.04.19  22:26:14
 running on   48 total cores
 distrk:  each k-point on   48 cores,    1 groups
 distr:  one band on NCORES_PER_BAND=   1 cores,   48 groups


--------------------------------------------------------------------------------------------------------


 INCAR:
 POTCAR:    PAW_PBE Ru 04Feb2005                  
 POTCAR:    PAW_PBE C 08Apr2002                   
 POTCAR:    PAW_PBE H 15Jun2001                   
 POTCAR:    PAW_PBE O 08Apr2002                   

 ----------------------------------------------------------------------------- 
|                                                                             |
|           W    W    AA    RRRRR   N    N  II  N    N   GGGG   !!!           |
|           W    W   A  A   R    R  NN   N  II  NN   N  G    G  !!!           |
|           W    W  A    A  R    R  N N  N  II  N N  N  G       !!!           |
|           W WW W  AAAAAA  RRRRR   N  N N  II  N  N N  G  GGG   !            |
|           WW  WW  A    A  R   R   N   NN  II  N   NN  G    G                |
|           W    W  A    A  R    R  N    N  II  N    N   GGGG   !!!           |
|                                                                             |
|      For optimal performance we recommend to set                            |
|        NCORE= 4 - approx SQRT( number of cores)                             |
|      NCORE specifies how many cores store one orbital (NPAR=cpu/NCORE).     |
|      This setting can  greatly improve the performance of VASP for DFT.     |
|      The default,   NCORE=1            might be grossly inefficient         |
|      on modern multi-core architectures or massively parallel machines.     |
|      Do your own testing !!!!                                               |
|      Unfortunately you need to use the default for GW and RPA calculations. |
|      (for HF NCORE is supported but not extensively tested yet)             |
|                                                                             |
 ----------------------------------------------------------------------------- 

 POTCAR:    PAW_PBE Ru 04Feb2005                  
  local pseudopotential read in
  partial core-charges read in
  partial kinetic energy density read in
  atomic valenz-charges read in
  non local Contribution for L=           2  read in
    real space projection operators read in
  non local Contribution for L=           2  read in
    real space projection operators read in
  non local Contribution for L=           0  read in
    real space projection operators read in
  non local Contribution for L=           0  read in
    real space projection operators read in
  non local Contribution for L=           1  read in
    real space projection operators read in
  non local Contribution for L=           1  read in
    real space projection operators read in
    PAW grid and wavefunctions read in
 
   number of l-projection  operators is LMAX  =           6
   number of lm-projection operators is LMMAX =          18
 
 POTCAR:    PAW_PBE C 08Apr2002                   
  local pseudopotential read in
  partial core-charges read in
  partial kinetic energy density read in
  atomic valenz-charges read in
  non local Contribution for L=           0  read in
    real space projection operators read in
  non local Contribution for L=           0  read in
    real space projection operators read in
  non local Contribution for L=           1  read in
    real space projection operators read in
  non local Contribution for L=           1  read in
    real space projection operators read in
    PAW grid and wavefunctions read in
 
   number of l-projection  operators is LMAX  =           4
   number of lm-projection operators is LMMAX =           8
 
 POTCAR:    PAW_PBE H 15Jun2001                   
  local pseudopotential read in
  atomic valenz-charges read in
  non local Contribution for L=           0  read in
    real space projection operators read in
  non local Contribution for L=           0  read in
    real space projection operators read in
  non local Contribution for L=           1  read in
    real space projection operators read in
    PAW grid and wavefunctions read in
 
   number of l-projection  operators is LMAX  =           3
   number of lm-projection operators is LMMAX =           5
 
 POTCAR:    PAW_PBE O 08Apr2002                   
  local pseudopotential read in
  partial core-charges read in
  partial kinetic energy density read in
  kinetic energy density of atom read in
  atomic valenz-charges read in
  non local Contribution for L=           0  read in
    real space projection operators read in
  non local Contribution for L=           0  read in
    real space projection operators read in
  non local Contribution for L=           1  read in
    real space projection operators read in
  non local Contribution for L=           1  read in
    real space projection operators read in
    PAW grid and wavefunctions read in
 
   number of l-projection  operators is LMAX  =           4
   number of lm-projection operators is LMMAX =           8
 
 Optimization of the real space projectors (new method)

 maximal supplied QI-value         = 13.98
 optimisation between [QCUT,QGAM] = [ 10.77, 21.68] = [ 32.47,131.56] Ry 
 Optimized for a Real-space Cutoff    1.51 Angstroem

   l    n(q)    QCUT    max X(q) W(low)/X(q) W(high)/X(q)  e(spline) 
   2      9    10.768    61.733    0.26E-03    0.97E-04    0.28E-06
   2      9    10.768    59.886    0.26E-03    0.10E-03    0.29E-06
   0     10    10.768    23.358    0.12E-03    0.28E-03    0.38E-06
   0     10    10.768    11.320    0.93E-04    0.23E-03    0.31E-06
   1      9    10.768    14.765    0.48E-03    0.21E-03    0.19E-06
   1      9    10.768     8.283    0.36E-03    0.16E-03    0.15E-06
 Optimization of the real space projectors (new method)

 maximal supplied QI-value         = 25.13
 optimisation between [QCUT,QGAM] = [ 10.81, 21.61] = [ 32.71,130.83] Ry 
 Optimized for a Real-space Cutoff    1.23 Angstroem

   l    n(q)    QCUT    max X(q) W(low)/X(q) W(high)/X(q)  e(spline) 
   0      8    10.807   115.676    0.36E-03    0.72E-03    0.24E-06
   0      8    10.807    87.132    0.35E-03    0.71E-03    0.24E-06
   1      7    10.807     4.429    0.19E-03    0.39E-03    0.11E-06
   1      7    10.807     2.733    0.14E-03    0.28E-03    0.13E-06
 Optimization of the real space projectors (new method)

 maximal supplied QI-value         = 34.20
 optimisation between [QCUT,QGAM] = [ 10.60, 21.55] = [ 31.48,130.03] Ry 
 Optimized for a Real-space Cutoff    1.23 Angstroem

   l    n(q)    QCUT    max X(q) W(low)/X(q) W(high)/X(q)  e(spline) 
   0      8    10.603    19.460    0.37E-03    0.59E-03    0.23E-06
   0      8    10.603    12.209    0.35E-03    0.56E-03    0.22E-06
   1      7    10.603     4.655    0.70E-04    0.28E-03    0.29E-06
 Optimization of the real space projectors (new method)

 maximal supplied QI-value         = 24.76
 optimisation between [QCUT,QGAM] = [ 10.64, 21.54] = [ 31.73,129.89] Ry 
 Optimized for a Real-space Cutoff    1.23 Angstroem

   l    n(q)    QCUT    max X(q) W(low)/X(q) W(high)/X(q)  e(spline) 
   0      8    10.645    20.381    0.38E-03    0.60E-03    0.15E-06
   0      8    10.645    15.268    0.40E-03    0.65E-03    0.17E-06
   1      7    10.645     5.964    0.30E-03    0.63E-03    0.18E-06
   1      7    10.645     5.382    0.24E-03    0.53E-03    0.16E-06
  PAW_PBE Ru 04Feb2005                  :
 energy of atom  1       EATOM= -454.8837
 kinetic energy error for atom=    0.0028 (will be added to EATOM!!)
  PAW_PBE C 08Apr2002                   :
 energy of atom  2       EATOM= -147.1560
 kinetic energy error for atom=    0.0116 (will be added to EATOM!!)
  PAW_PBE H 15Jun2001                   :
 energy of atom  3       EATOM=  -12.4884
 kinetic energy error for atom=    0.0045 (will be added to EATOM!!)
  PAW_PBE O 08Apr2002                   :
 energy of atom  4       EATOM= -432.3788
 kinetic energy error for atom=    0.0389 (will be added to EATOM!!)
 
 
 POSCAR: Ru  C  H  O                             
  positions in cartesian coordinates
  No initial velocities read in
 exchange correlation table for  LEXCH =        8
   RHO(1)=    0.500       N(1)  =     2000
   RHO(2)=  100.500       N(2)  =     4000
 


--------------------------------------------------------------------------------------------------------


 ion  position               nearest neighbor table
   1  0.048  0.167  0.200- 122 2.47  30 2.66  53 2.66  29 2.66   2 2.71   4 2.71   6 2.71  28 2.71
                            25 2.71   5 2.71
   2  0.048  0.417  0.200-  31 2.66  54 2.66  30 2.66   3 2.71   1 2.71  25 2.71   7 2.71  26 2.71
                             6 2.71
   3  0.048  0.667  0.200-  32 2.66  55 2.66  31 2.66   4 2.71   2 2.71  26 2.71   8 2.71  27 2.71
                             7 2.71
   4  0.048  0.917  0.200-  29 2.66  56 2.66  32 2.66   3 2.71   1 2.71  27 2.71   5 2.71  28 2.71
                             8 2.71
   5  0.190  0.167  0.200-  85 2.14  90 2.56  86 2.60  34 2.66  29 2.66  33 2.66  10 2.71   8 2.71
                             6 2.71   4 2.71   9 2.71   1 2.71
   6  0.190  0.417  0.200-  89 2.14  90 2.55  88 2.58  35 2.66  30 2.66  34 2.66  11 2.71   7 2.71
                             5 2.71   1 2.71  10 2.71   2 2.71
   7  0.190  0.667  0.200-  36 2.66  31 2.66  35 2.66  12 2.71   6 2.71   8 2.71   2 2.71  11 2.71
                             3 2.71
   8  0.190  0.917  0.200-  33 2.66  32 2.66  36 2.66   9 2.71   5 2.71   7 2.71   3 2.71  12 2.71
                             4 2.71
   9  0.333  0.167  0.200-  86 2.59  38 2.66  33 2.66  37 2.66   8 2.71  10 2.71  12 2.71  14 2.71
                             5 2.71  13 2.71
  10  0.333  0.417  0.200-  87 2.13  88 2.44  86 2.47  39 2.66  34 2.66  38 2.66   5 2.71   9 2.71
                            11 2.71  15 2.71   6 2.71  14 2.71
  11  0.333  0.667  0.200-  88 2.58  40 2.66  35 2.66  39 2.66   6 2.71  10 2.71  12 2.71  16 2.71
                             7 2.71  15 2.71
  12  0.333  0.917  0.200-  37 2.66  36 2.66  40 2.66   7 2.71  11 2.71   9 2.71  13 2.71   8 2.71
                            16 2.71
  13  0.476  0.167  0.200-  95 2.17  42 2.66  37 2.66  41 2.66  18 2.71  16 2.71  14 2.71  12 2.71
                            17 2.71   9 2.71
  14  0.476  0.417  0.200- 124 2.21  43 2.66  38 2.66  42 2.66  19 2.71  15 2.71  13 2.71   9 2.71
                            18 2.71  10 2.71
  15  0.476  0.667  0.200- 125 2.35  44 2.66  39 2.66  43 2.66  20 2.71  16 2.71  14 2.71  10 2.71
                            19 2.71  11 2.71
  16  0.476  0.917  0.200-  41 2.66  40 2.66  44 2.66  17 2.71  13 2.71  15 2.71  11 2.71  20 2.71
                            12 2.71
  17  0.619  0.167  0.200-  99 2.22  97 2.32  46 2.66  41 2.66  45 2.66  16 2.71  20 2.71  18 2.71
                            22 2.71  13 2.71  21 2.71
  18  0.619  0.417  0.200-  94 2.25  96 2.28  47 2.66  42 2.66  46 2.66  13 2.71  19 2.71  17 2.71
                            23 2.71  14 2.71  22 2.71
  19  0.619  0.667  0.200-  48 2.66  43 2.66  47 2.66  14 2.71  20 2.71  18 2.71  24 2.71  15 2.71
                            23 2.71
  20  0.619  0.917  0.200-  45 2.66  44 2.66  48 2.66  15 2.71  19 2.71  17 2.71  21 2.71  16 2.71
                            24 2.71
  21  0.762  0.167  0.200-  50 2.66  45 2.66  49 2.66  26 2.71  22 2.71  24 2.71  20 2.71  25 2.71
                            17 2.71
  22  0.762  0.417  0.200-  98 2.39  51 2.66  46 2.66  50 2.66  27 2.71  23 2.71  21 2.71  17 2.71
                            26 2.71  18 2.71
  23  0.762  0.667  0.200-  52 2.66  47 2.66  51 2.66  28 2.71  22 2.71  24 2.71  18 2.71  27 2.71
                            19 2.71
  24  0.762  0.917  0.200-  49 2.66  48 2.66  52 2.66  25 2.71  21 2.71  23 2.71  19 2.71  28 2.71
                            20 2.71
  25  0.905  0.167  0.200-  54 2.66  49 2.66  53 2.66  24 2.71  28 2.71  26 2.71   2 2.71  21 2.71
                             1 2.71
  26  0.905  0.417  0.200-  55 2.66  50 2.66  54 2.66  21 2.71  27 2.71  25 2.71   3 2.71  22 2.71
                             2 2.71
  27  0.905  0.667  0.200-  56 2.66  51 2.66  55 2.66  22 2.71  28 2.71  26 2.71   4 2.71  23 2.71
                             3 2.71
  28  0.905  0.917  0.200-  53 2.66  52 2.66  56 2.66  23 2.71  27 2.71  25 2.71   1 2.71  24 2.71
                             4 2.71
  29  0.095  0.083  0.100-   4 2.66   5 2.66   1 2.66  60 2.66  61 2.66  57 2.66  56 2.71  30 2.71
                            32 2.71  34 2.71  53 2.71  33 2.71
  30  0.095  0.333  0.100-   1 2.66   6 2.66   2 2.66  57 2.66  62 2.66  58 2.66  53 2.71  29 2.71
                            31 2.71  35 2.71  54 2.71  34 2.71
  31  0.095  0.583  0.100-   2 2.66   7 2.66   3 2.66  58 2.66  63 2.66  59 2.66  54 2.71  30 2.71
                            32 2.71  36 2.71  55 2.71  35 2.71
  32  0.095  0.833  0.100-   3 2.66   8 2.66   4 2.66  59 2.66  64 2.66  60 2.66  55 2.71  29 2.71
                            31 2.71  33 2.71  56 2.71  36 2.71
  33  0.238  0.083  0.100-   8 2.66   9 2.66   5 2.66  64 2.66  65 2.66  61 2.66  38 2.71  34 2.71
                            36 2.71  32 2.71  37 2.71  29 2.71
  34  0.238  0.333  0.100-   5 2.66  10 2.66   6 2.66  61 2.66  66 2.66  62 2.66  39 2.71  33 2.71
                            35 2.71  29 2.71  38 2.71  30 2.71
  35  0.238  0.583  0.100-   6 2.66  11 2.66   7 2.66  62 2.66  67 2.66  63 2.66  40 2.71  34 2.71
                            36 2.71  30 2.71  39 2.71  31 2.71
  36  0.238  0.833  0.100-   7 2.66  12 2.66   8 2.66  63 2.66  68 2.66  64 2.66  37 2.71  33 2.71
                            35 2.71  31 2.71  40 2.71  32 2.71
  37  0.381  0.083  0.100-  12 2.66  13 2.66   9 2.66  68 2.66  69 2.66  65 2.66  36 2.71  40 2.71
                            38 2.71  42 2.71  33 2.71  41 2.71
  38  0.381  0.333  0.100-   9 2.66  14 2.66  10 2.66  65 2.66  70 2.66  66 2.66  33 2.71  39 2.71
                            37 2.71  43 2.71  34 2.71  42 2.71
  39  0.381  0.583  0.100-  10 2.66  15 2.66  11 2.66  66 2.66  71 2.66  67 2.66  34 2.71  40 2.71
                            38 2.71  44 2.71  35 2.71  43 2.71
  40  0.381  0.833  0.100-  11 2.66  16 2.66  12 2.66  67 2.66  72 2.66  68 2.66  35 2.71  39 2.71
                            37 2.71  41 2.71  36 2.71  44 2.71
  41  0.524  0.083  0.100-  16 2.66  17 2.66  13 2.66  72 2.66  73 2.66  69 2.66  46 2.71  42 2.71
                            44 2.71  40 2.71  45 2.71  37 2.71
  42  0.524  0.333  0.100-  13 2.66  18 2.66  14 2.66  69 2.66  74 2.66  70 2.66  47 2.71  41 2.71
                            43 2.71  37 2.71  46 2.71  38 2.71
  43  0.524  0.583  0.100-  14 2.66  19 2.66  15 2.66  70 2.66  75 2.66  71 2.66  48 2.71  42 2.71
                            44 2.71  38 2.71  47 2.71  39 2.71
  44  0.524  0.833  0.100-  15 2.66  20 2.66  16 2.66  71 2.66  76 2.66  72 2.66  45 2.71  41 2.71
                            43 2.71  39 2.71  48 2.71  40 2.71
  45  0.667  0.083  0.100-  20 2.66  21 2.66  17 2.66  76 2.66  77 2.66  73 2.66  44 2.71  48 2.71
                            46 2.71  50 2.71  41 2.71  49 2.71
  46  0.667  0.333  0.100-  17 2.66  22 2.66  18 2.66  73 2.66  78 2.66  74 2.66  41 2.71  47 2.71
                            45 2.71  51 2.71  42 2.71  50 2.71
  47  0.667  0.583  0.100-  18 2.66  23 2.66  19 2.66  74 2.66  79 2.66  75 2.66  42 2.71  48 2.71
                            46 2.71  52 2.71  43 2.71  51 2.71
  48  0.667  0.833  0.100-  19 2.66  24 2.66  20 2.66  75 2.66  80 2.66  76 2.66  43 2.71  47 2.71
                            45 2.71  49 2.71  44 2.71  52 2.71
  49  0.810  0.083  0.100-  24 2.66  25 2.66  21 2.66  80 2.66  81 2.66  77 2.66  52 2.71  50 2.71
                            54 2.71  48 2.71  45 2.71  53 2.71
  50  0.810  0.333  0.100-  21 2.66  26 2.66  22 2.66  77 2.66  82 2.66  78 2.66  51 2.71  49 2.71
                            55 2.71  45 2.71  46 2.71  54 2.71
  51  0.810  0.583  0.100-  22 2.66  27 2.66  23 2.66  78 2.66  83 2.66  79 2.66  52 2.71  50 2.71
                            56 2.71  46 2.71  47 2.71  55 2.71
  52  0.810  0.833  0.100-  23 2.66  28 2.66  24 2.66  79 2.66  84 2.66  80 2.66  51 2.71  49 2.71
                            53 2.71  47 2.71  56 2.71  48 2.71
  53  0.952  0.083  0.100-  28 2.66   1 2.66  25 2.66  84 2.66  57 2.66  81 2.66  30 2.71  56 2.71
                            54 2.71  52 2.71  29 2.71  49 2.71
  54  0.952  0.333  0.100-  25 2.66   2 2.66  26 2.66  81 2.66  58 2.66  82 2.66  31 2.71  55 2.71
                            53 2.71  49 2.71  30 2.71  50 2.71
  55  0.952  0.583  0.100-  26 2.66   3 2.66  27 2.66  82 2.66  59 2.66  83 2.66  32 2.71  56 2.71
                            54 2.71  50 2.71  31 2.71  51 2.71
  56  0.952  0.833  0.100-  27 2.66   4 2.66  28 2.66  83 2.66  60 2.66  84 2.66  29 2.71  55 2.71
                            53 2.71  51 2.71  32 2.71  52 2.71
  57  0.048  0.167  0.000-  30 2.66  53 2.66  29 2.66  58 2.71  60 2.71  62 2.71  84 2.71  81 2.71
                            61 2.71
  58  0.048  0.417  0.000-  31 2.66  54 2.66  30 2.66  57 2.71  59 2.71  63 2.71  81 2.71  62 2.71
                            82 2.71
  59  0.048  0.667  0.000-  32 2.66  55 2.66  31 2.66  58 2.71  60 2.71  64 2.71  82 2.71  63 2.71
                            83 2.71
  60  0.048  0.917  0.000-  29 2.66  56 2.66  32 2.66  57 2.71  59 2.71  61 2.71  83 2.71  64 2.71
                            84 2.71
  61  0.190  0.167  0.000-  34 2.66  29 2.66  33 2.66  66 2.71  64 2.71  62 2.71  60 2.71  65 2.71
                            57 2.71
  62  0.190  0.417  0.000-  35 2.66  30 2.66  34 2.66  67 2.71  63 2.71  61 2.71  57 2.71  66 2.71
                            58 2.71
  63  0.190  0.667  0.000-  36 2.66  31 2.66  35 2.66  68 2.71  64 2.71  62 2.71  58 2.71  67 2.71
                            59 2.71
  64  0.190  0.917  0.000-  33 2.66  32 2.66  36 2.66  65 2.71  63 2.71  61 2.71  59 2.71  68 2.71
                            60 2.71
  65  0.333  0.167  0.000-  38 2.66  33 2.66  37 2.66  64 2.71  66 2.71  68 2.71  70 2.71  61 2.71
                            69 2.71
  66  0.333  0.417  0.000-  39 2.66  34 2.66  38 2.66  61 2.71  65 2.71  67 2.71  71 2.71  62 2.71
                            70 2.71
  67  0.333  0.667  0.000-  40 2.66  35 2.66  39 2.66  62 2.71  66 2.71  68 2.71  72 2.71  63 2.71
                            71 2.71
  68  0.333  0.917  0.000-  37 2.66  36 2.66  40 2.66  63 2.71  65 2.71  67 2.71  69 2.71  64 2.71
                            72 2.71
  69  0.476  0.167  0.000-  42 2.66  37 2.66  41 2.66  74 2.71  72 2.71  70 2.71  68 2.71  73 2.71
                            65 2.71
  70  0.476  0.417  0.000-  43 2.66  38 2.66  42 2.66  75 2.71  71 2.71  69 2.71  65 2.71  74 2.71
                            66 2.71
  71  0.476  0.667  0.000-  44 2.66  39 2.66  43 2.66  76 2.71  72 2.71  70 2.71  66 2.71  75 2.71
                            67 2.71
  72  0.476  0.917  0.000-  41 2.66  40 2.66  44 2.66  73 2.71  71 2.71  69 2.71  67 2.71  76 2.71
                            68 2.71
  73  0.619  0.167  0.000-  46 2.66  41 2.66  45 2.66  72 2.71  74 2.71  76 2.71  78 2.71  69 2.71
                            77 2.71
  74  0.619  0.417  0.000-  47 2.66  42 2.66  46 2.66  69 2.71  73 2.71  75 2.71  79 2.71  70 2.71
                            78 2.71
  75  0.619  0.667  0.000-  48 2.66  43 2.66  47 2.66  70 2.71  74 2.71  76 2.71  80 2.71  71 2.71
                            79 2.71
  76  0.619  0.917  0.000-  45 2.66  44 2.66  48 2.66  71 2.71  73 2.71  75 2.71  77 2.71  72 2.71
                            80 2.71
  77  0.762  0.167  0.000-  50 2.66  45 2.66  49 2.66  82 2.71  80 2.71  78 2.71  76 2.71  81 2.71
                            73 2.71
  78  0.762  0.417  0.000-  51 2.66  46 2.66  50 2.66  83 2.71  79 2.71  77 2.71  73 2.71  82 2.71
                            74 2.71
  79  0.762  0.667  0.000-  52 2.66  47 2.66  51 2.66  84 2.71  80 2.71  78 2.71  74 2.71  83 2.71
                            75 2.71
  80  0.762  0.917  0.000-  49 2.66  48 2.66  52 2.66  81 2.71  79 2.71  77 2.71  75 2.71  84 2.71
                            76 2.71
  81  0.905  0.167  0.000-  54 2.66  49 2.66  53 2.66  80 2.71  82 2.71  84 2.71  58 2.71  77 2.71
                            57 2.71
  82  0.905  0.417  0.000-  55 2.66  50 2.66  54 2.66  77 2.71  81 2.71  83 2.71  59 2.71  78 2.71
                            58 2.71
  83  0.905  0.667  0.000-  56 2.66  51 2.66  55 2.66  78 2.71  82 2.71  84 2.71  60 2.71  79 2.71
                            59 2.71
  84  0.905  0.917  0.000-  53 2.66  52 2.66  56 2.66  79 2.71  81 2.71  83 2.71  57 2.71  80 2.71
                            60 2.71
  85  0.201  0.184  0.300- 123 1.41  90 1.45  86 1.47   5 2.14
  86  0.290  0.264  0.294- 102 1.10  87 1.46  85 1.47  10 2.47   9 2.59   5 2.60
  87  0.337  0.418  0.299-  86 1.46  88 1.46  92 1.52  10 2.13
  88  0.290  0.493  0.293- 103 1.10  89 1.46  87 1.46  10 2.44  11 2.58   6 2.58
  89  0.202  0.418  0.299- 104 1.09  90 1.43  88 1.46   6 2.14
  90  0.160  0.266  0.298- 122 1.39  89 1.43  85 1.45   6 2.55   5 2.56
  91  0.193  0.976  0.348- 107 1.10 106 1.10 108 1.12 123 1.42
  92  0.415  0.496  0.337- 109 1.11 125 1.45  87 1.52  93 1.55
  93  0.464  0.421  0.352- 110 1.10 124 1.45 100 1.53  92 1.55
  94  0.561  0.364  0.295- 124 1.43  96 1.44  95 1.47  18 2.25
  95  0.514  0.208  0.297- 112 1.10  97 1.46  94 1.47  13 2.17
  96  0.648  0.446  0.304- 127 1.39  94 1.44  98 1.47  18 2.28
  97  0.564  0.141  0.299- 113 1.09  99 1.43  95 1.46  17 2.32
  98  0.697  0.377  0.300- 114 1.09  96 1.47  99 1.47  22 2.39
  99  0.651  0.221  0.300- 115 1.09  97 1.43  98 1.47  17 2.22
 100  0.520  0.492  0.408- 116 1.10 117 1.10 126 1.43  93 1.53
 101  0.761  0.655  0.352- 120 1.10 121 1.10 119 1.11 127 1.44
 102  0.321  0.204  0.308-  86 1.10
 103  0.323  0.606  0.307-  88 1.10
 104  0.172  0.471  0.321-  89 1.09
 105  0.061  0.095  0.321- 122 0.99
 106  0.251  0.030  0.374-  91 1.10
 107  0.148  0.882  0.374-  91 1.10
 108  0.206  0.940  0.303-  91 1.12
 109  0.397  0.515  0.383-  92 1.11
 110  0.422  0.307  0.362-  93 1.10
 111  0.518  0.678  0.333- 125 0.99
 112  0.459  0.160  0.326-  95 1.10
 113  0.535  0.030  0.315-  97 1.09
 114  0.754  0.427  0.326-  98 1.09
 115  0.684  0.168  0.316-  99 1.09
 116  0.482  0.483  0.449- 100 1.10
 117  0.554  0.437  0.418- 100 1.10
 118  0.617  0.641  0.370- 126 0.99
 119  0.802  0.667  0.312- 101 1.11
 120  0.773  0.760  0.366- 101 1.10
 121  0.772  0.600  0.391- 101 1.10
 122  0.078  0.196  0.313- 105 0.99  90 1.39   1 2.47
 123  0.160  0.066  0.340-  85 1.41  91 1.42
 124  0.515  0.437  0.299-  94 1.43  93 1.45  14 2.21
 125  0.466  0.635  0.309- 111 0.99  92 1.45  15 2.35
 126  0.574  0.640  0.396- 118 0.99 100 1.43
 127  0.677  0.577  0.334-  96 1.39 101 1.44
 
  Warning from LATTYP: Monoclinic adjustement (A1->A3, A2->A1, A3->A2)!
  Warning from LATTYP: Got some problem with cell dimensions!
  Tried to take original basis but could not verify dimensions!
  LATTYP: Found a simple monoclinic cell.
 ALAT       =    20.4796808342
 B/A-ratio  =     1.0467134775
 C/A-ratio  =     1.7371079010
 COS(beta)  =    -0.9695485959
  
  Lattice vectors:
  
 A1 = (  -8.1377999784, -18.7934440320,   0.0000000000)
 A2 = (   0.0000000000,   0.0000000000, -21.4363579450)
 A3 = (  21.7007999424,  28.1901660480,   0.0000000000)


Analysis of symmetry for initial positions (statically):
=====================================================================
 Subroutine PRICEL returns:
 Original cell was already a primitive cell.
 

 Routine SETGRP: Setting up the symmetry group for a 
 simple monoclinic supercell.


 Subroutine GETGRP returns: Found  1 space group operations
 (whereof  1 operations were pure point group operations)
 out of a pool of  4 trial point group operations.


The static configuration has the point symmetry C_1 .


Analysis of symmetry for dynamics (positions and initial velocities):
=====================================================================
 Subroutine PRICEL returns:
 Original cell was already a primitive cell.
 

 Routine SETGRP: Setting up the symmetry group for a 
 simple monoclinic supercell.


 Subroutine GETGRP returns: Found  1 space group operations
 (whereof  1 operations were pure point group operations)
 out of a pool of  4 trial point group operations.


The dynamic configuration has the point symmetry C_1 .


Analysis of constrained symmetry for selective dynamics:
=====================================================================
 Subroutine PRICEL returns:
 Original cell was already a primitive cell.
 

 Routine SETGRP: Setting up the symmetry group for a 
 simple monoclinic supercell.


 Subroutine GETGRP returns: Found  1 space group operations
 (whereof  1 operations were pure point group operations)
 out of a pool of  4 trial point group operations.


The constrained configuration has the point symmetry C_1 .


 Subroutine INISYM returns: Found  1 space group operations
 (whereof  1 operations are pure point group operations),
 and found     1 'primitive' translations

 
 
 KPOINTS: K-POINTS                                

Automatic generation of k-mesh.
Space group operators:
 irot       det(A)        alpha          n_x          n_y          n_z        tau_x        tau_y        tau_z
    1     1.000000     0.000000     1.000000     0.000000     0.000000     0.000000     0.000000     0.000000
 
 Subroutine IBZKPT returns following result:
 ===========================================
 
 Found      5 irreducible k-points:
 
 Following reciprocal coordinates:
            Coordinates               Weight
  0.000000  0.000000  0.000000      1.000000
  0.333333  0.000000  0.000000      2.000000
  0.000000  0.333333  0.000000      2.000000
  0.333333  0.333333  0.000000      2.000000
 -0.333333  0.333333  0.000000      2.000000
 
 Following cartesian coordinates:
            Coordinates               Weight
  0.000000  0.000000  0.000000      1.000000
  0.017555  0.010135  0.000000      2.000000
  0.000000  0.035473  0.000000      2.000000
  0.017555  0.045609  0.000000      2.000000
 -0.017555  0.025338  0.000000      2.000000
 


--------------------------------------------------------------------------------------------------------




 Dimension of arrays:
   k-points           NKPTS =      5   k-points in BZ     NKDIM =      5   number of bands    NBANDS=    480
   number of dos      NEDOS =    301   number of ions     NIONS =    127
   non local maximal  LDIM  =      6   non local SUM 2l+1 LMDIM =     18
   total plane-waves  NPLWV = 627200
   max r-space proj   IRMAX =   2409   max aug-charges    IRDMAX=  11289
   dimension x,y,z NGX =   100 NGY =   56 NGZ =  112
   dimension x,y,z NGXF=   200 NGYF=  112 NGZF=  224
   support grid    NGXF=   200 NGYF=  112 NGZF=  224
   ions per type =              84  17  20   6
   NGX,Y,Z   is equivalent  to a cutoff of   8.76,  8.58,  8.69 a.u.
   NGXF,Y,Z  is equivalent  to a cutoff of  17.51, 17.16, 17.37 a.u.

 SYSTEM =  x                                       
 POSCAR =  Ru  C  H  O                             

 Startparameter for this run:
   NWRITE =      0    write-flag & timer
   PREC   = normal    normal or accurate (medium, high low for compatibility)
   ISTART =      0    job   : 0-new  1-cont  2-samecut
   ICHARG =      2    charge: 1-file 2-atom 10-const
   ISPIN  =      1    spin polarized calculation?
   LNONCOLLINEAR =      F non collinear calculations
   LSORBIT =      F    spin-orbit coupling
   INIWAV =      1    electr: 0-lowe 1-rand  2-diag
   LASPH  =      F    aspherical Exc in radial PAW
   METAGGA=      F    non-selfconsistent MetaGGA calc.

 Electronic Relaxation 1
   ENCUT  =  450.0 eV  33.07 Ry    5.75 a.u.  32.84 18.77 37.08*2*pi/ulx,y,z
   ENINI  =  450.0     initial cutoff
   ENAUG  =  644.9 eV  augmentation charge cutoff
   NELM   =     50;   NELMIN=  5; NELMDL= -7     # of ELM steps 
   EDIFF  = 0.1E-04   stopping-criterion for ELM
   LREAL  =      T    real-space projection
   NLSPLINE    = F    spline interpolate recip. space projectors
   LCOMPAT=      F    compatible to vasp.4.4
   GGA_COMPAT  = T    GGA compatible to vasp.4.4-vasp.4.6
   LMAXPAW     = -100 max onsite density
   LMAXMIX     =    2 max onsite mixed and CHGCAR
   VOSKOWN=      0    Vosko Wilk Nusair interpolation
   ROPT   =   -0.00050  -0.00050  -0.00050  -0.00050
 Ionic relaxation
   EDIFFG = -.2E-01   stopping-criterion for IOM
   NSW    =    300    number of steps for IOM
   NBLOCK =      1;   KBLOCK =    300    inner block; outer block 
   IBRION =      2    ionic relax: 0-MD 1-quasi-New 2-CG
   NFREE  =      2    steps in history (QN), initial steepest desc. (CG)
   ISIF   =      2    stress and relaxation
   IWAVPR =     11    prediction:  0-non 1-charg 2-wave 3-comb
   ISYM   =      2    0-nonsym 1-usesym 2-fastsym
   LCORR  =      T    Harris-Foulkes like correction to forces

   POTIM  = 0.1500    time-step for ionic-motion
   TEIN   =    0.0    initial temperature
   TEBEG  =    0.0;   TEEND  =   0.0 temperature during run
   SMASS  =  -3.00    Nose mass-parameter (am)
   estimated Nose-frequenzy (Omega)   =  0.10E-29 period in steps =****** mass=  -0.824E-26a.u.
   SCALEE = 1.0000    scale energy and forces
   NPACO  =    256;   APACO  = 16.0  distance and # of slots for P.C.
   PSTRESS=    0.0 pullay stress

  Mass of Ions in am
   POMASS = 101.07 12.01  1.00 16.00
  Ionic Valenz
   ZVAL   =   8.00  4.00  1.00  6.00
  Atomic Wigner-Seitz radii
   RWIGS  =  -1.00 -1.00 -1.00 -1.00
  virtual crystal weights 
   VCA    =   1.00  1.00  1.00  1.00
   NELECT =     796.0000    total number of electrons
   NUPDOWN=      -1.0000    fix difference up-down

 DOS related values:
   EMIN   =  10.00;   EMAX   =-10.00  energy-range for DOS
   EFERMI =   0.00
   ISMEAR =     0;   SIGMA  =   0.03  broadening in eV -4-tet -1-fermi 0-gaus

 Electronic relaxation 2 (details)
   IALGO  =     68    algorithm
   LDIAG  =      T    sub-space diagonalisation (order eigenvalues)
   LSUBROT=      F    optimize rotation matrix (better conditioning)
   TURBO    =      0    0=normal 1=particle mesh
   IRESTART =      0    0=no restart 2=restart with 2 vectors
   NREBOOT  =      0    no. of reboots
   NMIN     =      0    reboot dimension
   EREF     =   0.00    reference energy to select bands
   IMIX   =      4    mixing-type and parameters
     AMIX     =   0.40;   BMIX     =  1.00
     AMIX_MAG =   1.60;   BMIX_MAG =  1.00
     AMIN     =   0.10
     WC   =   100.;   INIMIX=   1;  MIXPRE=   1;  MAXMIX= -45

 Intra band minimization:
   WEIMIN = 0.0010     energy-eigenvalue tresh-hold
   EBREAK =  0.52E-08  absolut break condition
   DEPER  =   0.30     relativ break condition  

   TIME   =   0.40     timestep for ELM

  volume/ion in A,a.u.               =      30.12       203.24
  Fermi-wavevector in a.u.,A,eV,Ry     =   0.970157  1.833331 12.805872  0.941205
  Thomas-Fermi vector in A             =   2.100269
 
 Write flags
   LWAVE        =      F    write WAVECAR
   LDOWNSAMPLE  =      F    k-point downsampling of WAVECAR
   LCHARG       =      F    write CHGCAR
   LVTOT        =      F    write LOCPOT, total local potential
   LVHAR        =      F    write LOCPOT, Hartree potential only
   LELF         =      F    write electronic localiz. function (ELF)
   LORBIT       =      0    0 simple, 1 ext, 2 COOP (PROOUT), +10 PAW based schemes


 Dipole corrections
   LMONO  =      F    monopole corrections only (constant potential shift)
   LDIPOL =      T    correct potential (dipole corrections)
   IDIPOL =      3    1-x, 2-y, 3-z, 4-all directions 
   EPSILON=  1.0000000 bulk dielectric constant

 Exchange correlation treatment:
   GGA     =    PE    GGA type
   LEXCH   =     8    internal setting for exchange type
   VOSKOWN=      0    Vosko Wilk Nusair interpolation
   LHFCALC =     F    Hartree Fock is set to
   LHFONE  =     F    Hartree Fock one center treatment
   AEXX    =    0.0000 exact exchange contribution

 Linear response parameters
   LEPSILON=     F    determine dielectric tensor
   LRPA    =     F    only Hartree local field effects (RPA)
   LNABLA  =     F    use nabla operator in PAW spheres
   LVEL    =     F    velocity operator in full k-point grid
   LINTERFAST=   F  fast interpolation
   KINTER  =     0    interpolate to denser k-point grid
   CSHIFT  =0.1000    complex shift for real part using Kramers Kronig
   OMEGAMAX=  -1.0    maximum frequency
   DEG_THRESHOLD= 0.2000000E-02 threshold for treating states as degnerate
   RTIME   =   -0.100 relaxation time in fs
  (WPLASMAI=    0.000 imaginary part of plasma frequency in eV, 0.658/RTIME)
   DFIELD  = 0.0000000 0.0000000 0.0000000 field for delta impulse in time
 
 Orbital magnetization related:
   ORBITALMAG=     F  switch on orbital magnetization
   LCHIMAG   =     F  perturbation theory with respect to B field
   DQ        =  0.001000  dq finite difference perturbation B field
   LLRAUG    =     F  two centre corrections for induced B field



--------------------------------------------------------------------------------------------------------


 conjugate gradient relaxation of ions
   using selective dynamics as specified on POSCAR
   WARNING: If single coordinates had been selected the selection of coordinates
            is made according to the corresponding   d i r e c t   coordinates!
            Don't support selection of single cartesian coordinates -- sorry ...
  !
 charge density and potential will be updated during run
 non-spin polarized calculation
 RMM-DIIS sequential band-by-band and
  variant of blocked Davidson during initial phase
 perform sub-space diagonalisation
    before iterative eigenvector-optimisation
 modified Broyden-mixing scheme, WC =      100.0
 initial mixing is a Kerker type mixing with AMIX =  0.4000 and BMIX =      1.0000
 Hartree-type preconditioning will be used
 using additional bands           82
 real space projection scheme for non local part
 use partial core corrections
 calculate Harris-corrections to forces 
   (improved forces if not selfconsistent)
 use gradient corrections 
 use of overlap-Matrix (Vanderbilt PP)
 Gauss-broadening in eV      SIGMA  =   0.03


--------------------------------------------------------------------------------------------------------


  energy-cutoff  :      450.00
  volume of cell :     3824.82
      direct lattice vectors                 reciprocal lattice vectors
    18.988199950  0.000000000  0.000000000     0.052664286  0.030405740  0.000000000
    -5.425199986  9.396722016  0.000000000     0.000000000  0.106420090  0.000000000
     0.000000000  0.000000000 21.436357945     0.000000000  0.000000000  0.046649716

  length of vectors
    18.988199950 10.850399971 21.436357945     0.060811480  0.106420090  0.046649716


 
 k-points in units of 2pi/SCALE and weight: K-POINTS                                
   0.00000000  0.00000000  0.00000000       0.111
   0.01755476  0.01013525  0.00000000       0.222
   0.00000000  0.03547336  0.00000000       0.222
   0.01755476  0.04560861  0.00000000       0.222
  -0.01755476  0.02533812  0.00000000       0.222
 
 k-points in reciprocal lattice and weights: K-POINTS                                
   0.00000000  0.00000000  0.00000000       0.111
   0.33333333  0.00000000  0.00000000       0.222
   0.00000000  0.33333333  0.00000000       0.222
   0.33333333  0.33333333  0.00000000       0.222
  -0.33333333  0.33333333  0.00000000       0.222
 
 position of ions in fractional coordinates (direct lattice) 
   0.04761857  0.16666751  0.20017397
   0.04761857  0.41666751  0.20017397
   0.04761857  0.66666751  0.20017397
   0.04761857  0.91666751  0.20017397
   0.19047572  0.16666751  0.20017397
   0.19047572  0.41666751  0.20017397
   0.19047572  0.66666751  0.20017397
   0.19047572  0.91666751  0.20017397
   0.33333286  0.16666751  0.20017397
   0.33333286  0.41666751  0.20017397
   0.33333286  0.66666751  0.20017397
   0.33333286  0.91666751  0.20017397
   0.47619000  0.16666751  0.20017397
   0.47619000  0.41666751  0.20017397
   0.47619000  0.66666751  0.20017397
   0.47619000  0.91666751  0.20017397
   0.61904714  0.16666751  0.20017397
   0.61904714  0.41666751  0.20017397
   0.61904714  0.66666751  0.20017397
   0.61904714  0.91666751  0.20017397
   0.76190429  0.16666751  0.20017397
   0.76190429  0.41666751  0.20017397
   0.76190429  0.66666751  0.20017397
   0.76190429  0.91666751  0.20017397
   0.90476143  0.16666751  0.20017397
   0.90476143  0.41666751  0.20017397
   0.90476143  0.66666751  0.20017397
   0.90476143  0.91666751  0.20017397
   0.09523857  0.08333250  0.10009367
   0.09523857  0.33333250  0.10009367
   0.09523857  0.58333250  0.10009367
   0.09523857  0.83333250  0.10009367
   0.23809572  0.08333250  0.10009367
   0.23809572  0.33333250  0.10009367
   0.23809572  0.58333250  0.10009367
   0.23809572  0.83333250  0.10009367
   0.38095286  0.08333250  0.10009367
   0.38095286  0.33333250  0.10009367
   0.38095286  0.58333250  0.10009367
   0.38095286  0.83333250  0.10009367
   0.52381000  0.08333250  0.10009367
   0.52381000  0.33333250  0.10009367
   0.52381000  0.58333250  0.10009367
   0.52381000  0.83333250  0.10009367
   0.66666715  0.08333250  0.10009367
   0.66666715  0.33333250  0.10009367
   0.66666715  0.58333250  0.10009367
   0.66666715  0.83333250  0.10009367
   0.80952429  0.08333250  0.10009367
   0.80952429  0.33333250  0.10009367
   0.80952429  0.58333250  0.10009367
   0.80952429  0.83333250  0.10009367
   0.95238143  0.08333250  0.10009367
   0.95238143  0.33333250  0.10009367
   0.95238143  0.58333250  0.10009367
   0.95238143  0.83333250  0.10009367
   0.04761857  0.16666751  0.00000002
   0.04761857  0.41666751  0.00000002
   0.04761857  0.66666751  0.00000002
   0.04761857  0.91666751  0.00000002
   0.19047572  0.16666751  0.00000002
   0.19047572  0.41666751  0.00000002
   0.19047572  0.66666751  0.00000002
   0.19047572  0.91666751  0.00000002
   0.33333286  0.16666751  0.00000002
   0.33333286  0.41666751  0.00000002
   0.33333286  0.66666751  0.00000002
   0.33333286  0.91666751  0.00000002
   0.47619000  0.16666751  0.00000002
   0.47619000  0.41666751  0.00000002
   0.47619000  0.66666751  0.00000002
   0.47619000  0.91666751  0.00000002
   0.61904714  0.16666751  0.00000002
   0.61904714  0.41666751  0.00000002
   0.61904714  0.66666751  0.00000002
   0.61904714  0.91666751  0.00000002
   0.76190429  0.16666751  0.00000002
   0.76190429  0.41666751  0.00000002
   0.76190429  0.66666751  0.00000002
   0.76190429  0.91666751  0.00000002
   0.90476143  0.16666751  0.00000002
   0.90476143  0.41666751  0.00000002
   0.90476143  0.66666751  0.00000002
   0.90476143  0.91666751  0.00000002
   0.20132465  0.18415293  0.29973266
   0.29032660  0.26385082  0.29401632
   0.33660349  0.41849916  0.29930467
   0.29035590  0.49259672  0.29287001
   0.20200868  0.41835295  0.29942506
   0.16004178  0.26607940  0.29827377
   0.19341378  0.97607374  0.34836073
   0.41482336  0.49598811  0.33680870
   0.46398357  0.42076088  0.35197567
   0.56094108  0.36419906  0.29500297
   0.51411037  0.20811558  0.29718765
   0.64756996  0.44596422  0.30428914
   0.56445654  0.14093076  0.29929775
   0.69710941  0.37723637  0.29953617
   0.65129701  0.22076373  0.29969073
   0.51958542  0.49183175  0.40799527
   0.76102153  0.65472035  0.35196645
   0.32094403  0.20446004  0.30767538
   0.32268669  0.60587928  0.30668000
   0.17221903  0.47088427  0.32136967
   0.06116558  0.09536723  0.32060130
   0.25128943  0.03005064  0.37449399
   0.14798273  0.88240093  0.37396936
   0.20567391  0.94036376  0.30259674
   0.39677725  0.51526778  0.38344994
   0.42227170  0.30707598  0.36187278
   0.51752455  0.67832314  0.33294205
   0.45905608  0.15963039  0.32607915
   0.53481805  0.02994030  0.31466005
   0.75409142  0.42702721  0.32589452
   0.68400599  0.16802071  0.31610494
   0.48233993  0.48308507  0.44890667
   0.55400296  0.43708241  0.41849752
   0.61685352  0.64110821  0.36956270
   0.80151023  0.66676308  0.31231025
   0.77251629  0.76020616  0.36623137
   0.77192176  0.60015920  0.39097462
   0.07792440  0.19613209  0.31292577
   0.16024315  0.06648531  0.34010674
   0.51526480  0.43657441  0.29877266
   0.46582778  0.63490893  0.30913551
   0.57391871  0.63985461  0.39620610
   0.67670829  0.57721975  0.33360430
 
 position of ions in cartesian coordinates  (Angst):
  -0.00001358  1.56612822  4.29100095
  -1.35631358  3.91530873  4.29100095
  -2.71261357  6.26448923  4.29100095
  -4.06891357  8.61366974  4.29100095
   2.71258641  1.56612822  4.29100095
   1.35628642  3.91530873  4.29100095
  -0.00001358  6.26448923  4.29100095
  -1.35631358  8.61366974  4.29100095
   5.42518640  1.56612822  4.29100095
   4.06888641  3.91530873  4.29100095
   2.71258641  6.26448923  4.29100095
   1.35628642  8.61366974  4.29100095
   8.13778640  1.56612822  4.29100095
   6.78148640  3.91530873  4.29100095
   5.42518640  6.26448923  4.29100095
   4.06888641  8.61366974  4.29100095
  10.85038639  1.56612822  4.29100095
   9.49408639  3.91530873  4.29100095
   8.13778640  6.26448923  4.29100095
   6.78148640  8.61366974  4.29100095
  13.56298638  1.56612822  4.29100095
  12.20668639  3.91530873  4.29100095
  10.85038639  6.26448923  4.29100095
   9.49408639  8.61366974  4.29100095
  16.27558638  1.56612822  4.29100095
  14.91928638  3.91530873  4.29100095
  13.56298638  6.26448923  4.29100095
  12.20668639  8.61366974  4.29100095
   1.35631362  0.78305235  2.14564370
   0.00001362  3.13223285  2.14564370
  -1.35628637  5.48141336  2.14564370
  -2.71258637  7.83059386  2.14564370
   4.06891361  0.78305235  2.14564370
   2.71261361  3.13223285  2.14564370
   1.35631362  5.48141336  2.14564370
   0.00001362  7.83059386  2.14564370
   6.78151360  0.78305235  2.14564370
   5.42521361  3.13223285  2.14564370
   4.06891361  5.48141336  2.14564370
   2.71261361  7.83059386  2.14564370
   9.49411360  0.78305235  2.14564370
   8.13781360  3.13223285  2.14564370
   6.78151360  5.48141336  2.14564370
   5.42521361  7.83059386  2.14564370
  12.20671359  0.78305235  2.14564370
  10.85041359  3.13223285  2.14564370
   9.49411360  5.48141336  2.14564370
   8.13781360  7.83059386  2.14564370
  14.91931358  0.78305235  2.14564370
  13.56301359  3.13223285  2.14564370
  12.20671359  5.48141336  2.14564370
  10.85041359  7.83059386  2.14564370
  17.63191357  0.78305235  2.14564370
  16.27561358  3.13223285  2.14564370
  14.91931358  5.48141336  2.14564370
  13.56301359  7.83059386  2.14564370
  -0.00001358  1.56612822  0.00000046
  -1.35631358  3.91530873  0.00000046
  -2.71261357  6.26448923  0.00000046
  -4.06891357  8.61366974  0.00000046
   2.71258641  1.56612822  0.00000046
   1.35628642  3.91530873  0.00000046
  -0.00001358  6.26448923  0.00000046
  -1.35631358  8.61366974  0.00000046
   5.42518640  1.56612822  0.00000046
   4.06888641  3.91530873  0.00000046
   2.71258641  6.26448923  0.00000046
   1.35628642  8.61366974  0.00000046
   8.13778640  1.56612822  0.00000046
   6.78148640  3.91530873  0.00000046
   5.42518640  6.26448923  0.00000046
   4.06888641  8.61366974  0.00000046
  10.85038639  1.56612822  0.00000046
   9.49408639  3.91530873  0.00000046
   8.13778640  6.26448923  0.00000046
   6.78148640  8.61366974  0.00000046
  13.56298638  1.56612822  0.00000046
  12.20668639  3.91530873  0.00000046
  10.85038639  6.26448923  0.00000046
   9.49408639  8.61366974  0.00000046
  16.27558638  1.56612822  0.00000046
  14.91928638  3.91530873  0.00000046
  13.56298638  6.26448923  0.00000046
  12.20668639  8.61366974  0.00000046
   2.82372620  1.73043390  6.42517654
   4.08133598  2.47933282  6.30263915
   4.12105272  3.93252031  6.41600209
   2.84090018  4.62879440  6.27806639
   1.56613270  3.93114639  6.41858284
   1.59537132  2.50027414  6.39390336
  -1.62281567  9.17189364  7.46758534
   5.18591415  4.66066239  7.21995182
   6.52750084  3.95377307  7.54507649
   8.67540863  3.42227736  6.32378936
   8.63296187  1.95560429  6.37062075
   9.87674271  4.19060183  6.52285089
   9.95343615  1.32428717  6.41585373
  11.19027005  3.54478529  6.42096466
  11.16927050  2.07445536  6.42427775
   7.19770624  4.62160620  8.74593260
  10.89844010  6.15222512  7.54487878
   4.98491278  1.92125412  6.59543953
   2.84022322  5.69327916  6.57410227
   0.71548811  4.42476859  6.88899526
   0.64403800  0.89613930  6.87252419
   4.60850318  0.28237755  8.02778728
  -1.97727579  8.29167629  8.01654112
  -1.19628404  8.83633684  6.48657212
   4.73865511  4.84182806  8.21977019
   6.35223086  2.88550760  7.75723441
   6.14682087  6.37401396  7.13706490
   7.85062184  1.50000242  6.98994937
   9.99279995  0.28134072  6.74516540
  12.00213066  4.01265598  6.98599162
  12.07649661  1.57884388  6.77613875
   6.53793398  4.53941607  9.62292407
   8.14825957  4.10714190  8.97106261
   8.23479775  6.02431562  7.92207832
  11.60191338  6.26538729  6.69479437
  10.54442328  7.14344597  7.85066675
  11.40142104  5.63952918  8.38107183
   0.41558822  1.84299875  6.70798875
   2.68203294  0.62474396  7.29064980
   7.41544759  4.10236833  6.40459769
   5.40072316  5.96606273  6.62673955
   7.42634393  6.01253593  8.49321585
   9.71793984  5.42397351  7.15126115
 


--------------------------------------------------------------------------------------------------------


 k-point  1 :   0.0000 0.0000 0.0000  plane waves:   82945
 k-point  2 :   0.3333 0.0000 0.0000  plane waves:   82944
 k-point  3 :   0.0000 0.3333 0.0000  plane waves:   82913
 k-point  4 :   0.3333 0.3333 0.0000  plane waves:   82924
 k-point  5 :  -0.3333 0.3333 0.0000  plane waves:   82907

 maximum and minimum number of plane-waves per node :     82945    82907

 maximum number of plane-waves:     82945
 maximum index in each direction: 
   IXMAX=   33   IYMAX=   18   IZMAX=   37
   IXMIN=  -33   IYMIN=  -19   IZMIN=  -37


 serial   3D FFT for wavefunctions
 parallel 3D FFT for charge:
    minimum data exchange during FFTs selected (reduces bandwidth)


 total amount of memory used by VASP MPI-rank0   179459. kBytes
=======================================================================

   base      :      30000. kBytes
   nonlr-proj:      38718. kBytes
   fftplans  :       6642. kBytes
   grid      :      34272. kBytes
   one-center:       1975. kBytes
   wavefun   :      67852. kBytes
 
     INWAV:  cpu time    0.0000: real time    0.0003
 Broyden mixing: mesh for mixing (old mesh)
   NGX = 65   NGY = 37   NGZ = 75
  (NGX  =200   NGY  =112   NGZ  =224)
  gives a total of 180375 points

 initial charge density was supplied:
 charge density of overlapping atoms calculated
 number of electron     796.0000000 magnetization 
 keeping initial charge density in first step


--------------------------------------------------------------------------------------------------------


 Maximum index for non-local projection operator         2304
 Maximum index for augmentation-charges          841 (set IRDMAX)


--------------------------------------------------------------------------------------------------------


 First call to EWALD:  gamma=   0.113
 Maximum number of real-space cells 3x 4x 2
 Maximum number of reciprocal cells 3x 2x 4

    FEWALD:  cpu time    0.0045: real time    0.0045


--------------------------------------- Iteration      1(   1)  ---------------------------------------


    POTLOK:  cpu time    0.1058: real time    0.1235
    SETDIJ:  cpu time    0.0115: real time    0.0196
     EDDAV:  cpu time   18.5738: real time   18.6324
       DOS:  cpu time    0.0014: real time    0.0028
    --------------------------------------------
      LOOP:  cpu time   18.6925: real time   18.7784

 eigenvalue-minimisations  :  4800
 total energy-change (2. order) : 0.4914557E+04  (-0.3169484E+05)
 number of electron     796.0000000 magnetization 
 augmentation part      796.0000000 magnetization 

 DIPCOR: dipole corrections for dipol
 direction  3 min pos   146,
 dipolmoment           0.000000      0.000000     -0.001507 electrons x Angstroem
 Tr[quadrupol]    -33644.810495

 energy correction for charged system         0.000000 eV
 dipol+quadrupol energy correction           -0.000000 eV
 added-field ion interaction         -0.014788 eV  (added to PSCEN)


 Free energy of the ion-electron system (eV)
  ---------------------------------------------------
  alpha Z        PSCENC =      1114.31155613
  Ewald energy   TEWEN  =    175730.33885047
  -Hartree energ DENC   =   -220218.21381429
  -exchange      EXHF   =         0.00000000
  -V(xc)+E(xc)   XCENC  =     -2272.19217762
  PAW double counting   =     42830.63587090   -38757.41110574
  entropy T*S    EENTRO =        -0.02451507
  eigenvalues    EBANDS =      2931.94640279
  atomic energy  EATOM  =     43555.16572946
  Solvation  Ediel_sol  =         0.00000000
  ---------------------------------------------------
  free energy    TOTEN  =      4914.55679704 eV

  energy without entropy =     4914.58131211  energy(sigma->0) =     4914.56905458


--------------------------------------------------------------------------------------------------------




--------------------------------------- Iteration      1(   2)  ---------------------------------------


     EDDAV:  cpu time   19.9446: real time   19.9572
       DOS:  cpu time    0.0015: real time    0.0015
    --------------------------------------------
      LOOP:  cpu time   19.9461: real time   19.9588

 eigenvalue-minimisations  :  5280
 total energy-change (2. order) :-0.5347407E+04  (-0.5043067E+04)
 number of electron     796.0000000 magnetization 
 augmentation part      796.0000000 magnetization 

 DIPCOR: dipole corrections for dipol
 direction  3 min pos   146,
 dipolmoment           0.000000      0.000000     -0.001507 electrons x Angstroem
 Tr[quadrupol]    -33644.810495

 energy correction for charged system         0.000000 eV
 dipol+quadrupol energy correction           -0.000000 eV
 added-field ion interaction         -0.014788 eV  (added to PSCEN)


 Free energy of the ion-electron system (eV)
  ---------------------------------------------------
  alpha Z        PSCENC =      1114.31155613
  Ewald energy   TEWEN  =    175730.33885047
  -Hartree energ DENC   =   -220218.21381429
  -exchange      EXHF   =         0.00000000
  -V(xc)+E(xc)   XCENC  =     -2272.19217762
  PAW double counting   =     42830.63587090   -38757.41110574
  entropy T*S    EENTRO =        -0.03961678
  eigenvalues    EBANDS =     -2415.44587871
  atomic energy  EATOM  =     43555.16572946
  Solvation  Ediel_sol  =         0.00000000
  ---------------------------------------------------
  free energy    TOTEN  =      -432.85058616 eV

  energy without entropy =     -432.81096938  energy(sigma->0) =     -432.83077777


--------------------------------------------------------------------------------------------------------




--------------------------------------- Iteration      1(   3)  ---------------------------------------


     EDDAV:  cpu time   34.6981: real time   34.7130
       DOS:  cpu time    0.0021: real time    0.0021
    --------------------------------------------
      LOOP:  cpu time   34.7002: real time   34.7151

 eigenvalue-minimisations  :  8640
 total energy-change (2. order) :-0.5942894E+03  (-0.5740224E+03)
 number of electron     796.0000000 magnetization 
 augmentation part      796.0000000 magnetization 

 DIPCOR: dipole corrections for dipol
 direction  3 min pos   146,
 dipolmoment           0.000000      0.000000     -0.001507 electrons x Angstroem
 Tr[quadrupol]    -33644.810495

 energy correction for charged system         0.000000 eV
 dipol+quadrupol energy correction           -0.000000 eV
 added-field ion interaction         -0.014788 eV  (added to PSCEN)


 Free energy of the ion-electron system (eV)
  ---------------------------------------------------
  alpha Z        PSCENC =      1114.31155613
  Ewald energy   TEWEN  =    175730.33885047
  -Hartree energ DENC   =   -220218.21381429
  -exchange      EXHF   =         0.00000000
  -V(xc)+E(xc)   XCENC  =     -2272.19217762
  PAW double counting   =     42830.63587090   -38757.41110574
  entropy T*S    EENTRO =        -0.02920101
  eigenvalues    EBANDS =     -3009.74564536
  atomic energy  EATOM  =     43555.16572946
  Solvation  Ediel_sol  =         0.00000000
  ---------------------------------------------------
  free energy    TOTEN  =     -1027.13993705 eV

  energy without entropy =    -1027.11073604  energy(sigma->0) =    -1027.12533655


--------------------------------------------------------------------------------------------------------




--------------------------------------- Iteration      1(   4)  ---------------------------------------


     EDDAV:  cpu time   24.6027: real time   24.6139
       DOS:  cpu time    0.0019: real time    0.0019
    --------------------------------------------
      LOOP:  cpu time   24.6046: real time   24.6158

 eigenvalue-minimisations  :  6816
 total energy-change (2. order) :-0.3619093E+02  (-0.3550126E+02)
 number of electron     796.0000000 magnetization 
 augmentation part      796.0000000 magnetization 

 DIPCOR: dipole corrections for dipol
 direction  3 min pos   146,
 dipolmoment           0.000000      0.000000     -0.001507 electrons x Angstroem
 Tr[quadrupol]    -33644.810495

 energy correction for charged system         0.000000 eV
 dipol+quadrupol energy correction           -0.000000 eV
 added-field ion interaction         -0.014788 eV  (added to PSCEN)


 Free energy of the ion-electron system (eV)
  ---------------------------------------------------
  alpha Z        PSCENC =      1114.31155613
  Ewald energy   TEWEN  =    175730.33885047
  -Hartree energ DENC   =   -220218.21381429
  -exchange      EXHF   =         0.00000000
  -V(xc)+E(xc)   XCENC  =     -2272.19217762
  PAW double counting   =     42830.63587090   -38757.41110574
  entropy T*S    EENTRO =        -0.03318728
  eigenvalues    EBANDS =     -3045.93258712
  atomic energy  EATOM  =     43555.16572946
  Solvation  Ediel_sol  =         0.00000000
  ---------------------------------------------------
  free energy    TOTEN  =     -1063.33086507 eV

  energy without entropy =    -1063.29767780  energy(sigma->0) =    -1063.31427144


--------------------------------------------------------------------------------------------------------




--------------------------------------- Iteration      1(   5)  ---------------------------------------


     EDDAV:  cpu time   24.4497: real time   24.4588
       DOS:  cpu time    0.0017: real time    0.0017
    --------------------------------------------
      LOOP:  cpu time   24.4515: real time   24.4606

 eigenvalue-minimisations  :  6720
 total energy-change (2. order) :-0.1277098E+01  (-0.1262571E+01)
 number of electron     796.0000000 magnetization 
 augmentation part      796.0000000 magnetization 

 DIPCOR: dipole corrections for dipol
 direction  3 min pos   146,
 dipolmoment           0.000000      0.000000     -0.001507 electrons x Angstroem
 Tr[quadrupol]    -33644.810495

 energy correction for charged system         0.000000 eV
 dipol+quadrupol energy correction           -0.000000 eV
 added-field ion interaction         -0.014788 eV  (added to PSCEN)


 Free energy of the ion-electron system (eV)
  ---------------------------------------------------
  alpha Z        PSCENC =      1114.31155613
  Ewald energy   TEWEN  =    175730.33885047
  -Hartree energ DENC   =   -220218.21381429
  -exchange      EXHF   =         0.00000000
  -V(xc)+E(xc)   XCENC  =     -2272.19217762
  PAW double counting   =     42830.63587090   -38757.41110574
  entropy T*S    EENTRO =        -0.03457620
  eigenvalues    EBANDS =     -3047.20829581
  atomic energy  EATOM  =     43555.16572946
  Solvation  Ediel_sol  =         0.00000000
  ---------------------------------------------------
  free energy    TOTEN  =     -1064.60796268 eV

  energy without entropy =    -1064.57338648  energy(sigma->0) =    -1064.59067458


--------------------------------------------------------------------------------------------------------




--------------------------------------- Iteration      1(   6)  ---------------------------------------


     EDDAV:  cpu time   26.7067: real time   26.7178
       DOS:  cpu time    0.0017: real time    0.0017
    --------------------------------------------
      LOOP:  cpu time   26.7084: real time   26.7195

 eigenvalue-minimisations  :  7440
 total energy-change (2. order) :-0.7205133E-01  (-0.7167250E-01)
 number of electron     796.0000000 magnetization 
 augmentation part      796.0000000 magnetization 

 DIPCOR: dipole corrections for dipol
 direction  3 min pos   146,
 dipolmoment           0.000000      0.000000     -0.001507 electrons x Angstroem
 Tr[quadrupol]    -33644.810495

 energy correction for charged system         0.000000 eV
 dipol+quadrupol energy correction           -0.000000 eV
 added-field ion interaction         -0.014788 eV  (added to PSCEN)


 Free energy of the ion-electron system (eV)
  ---------------------------------------------------
  alpha Z        PSCENC =      1114.31155613
  Ewald energy   TEWEN  =    175730.33885047
  -Hartree energ DENC   =   -220218.21381429
  -exchange      EXHF   =         0.00000000
  -V(xc)+E(xc)   XCENC  =     -2272.19217762
  PAW double counting   =     42830.63587090   -38757.41110574
  entropy T*S    EENTRO =        -0.03460150
  eigenvalues    EBANDS =     -3047.28032184
  atomic energy  EATOM  =     43555.16572946
  Solvation  Ediel_sol  =         0.00000000
  ---------------------------------------------------
  free energy    TOTEN  =     -1064.68001402 eV

  energy without entropy =    -1064.64541252  energy(sigma->0) =    -1064.66271327


--------------------------------------------------------------------------------------------------------




--------------------------------------- Iteration      1(   7)  ---------------------------------------


     EDDAV:  cpu time   25.4978: real time   25.5091
       DOS:  cpu time    0.0016: real time    0.0016
    CHARGE:  cpu time    0.9233: real time    0.9278
    MIXING:  cpu time    0.0035: real time    0.0071
    --------------------------------------------
      LOOP:  cpu time   26.4262: real time   26.4456

 eigenvalue-minimisations  :  7056
 total energy-change (2. order) :-0.5507205E-02  (-0.5488030E-02)
 number of electron     796.0000078 magnetization 
 augmentation part      217.6619803 magnetization 

 DIPCOR: dipole corrections for dipol
 direction  3 min pos   146,
 dipolmoment           0.000000      0.000000     -0.001507 electrons x Angstroem
 Tr[quadrupol]    -33644.810495

 energy correction for charged system         0.000000 eV
 dipol+quadrupol energy correction           -0.000000 eV
 added-field ion interaction         -0.014788 eV  (added to PSCEN)


 Broyden mixing:
  rms(total) = 0.99309E+01    rms(broyden)= 0.99303E+01
  rms(prec ) = 0.10185E+02
  weight for this iteration     100.00

 Free energy of the ion-electron system (eV)
  ---------------------------------------------------
  alpha Z        PSCENC =      1114.31155613
  Ewald energy   TEWEN  =    175730.33885047
  -Hartree energ DENC   =   -220218.21381429
  -exchange      EXHF   =         0.00000000
  -V(xc)+E(xc)   XCENC  =     -2272.19217762
  PAW double counting   =     42830.63587090   -38757.41110574
  entropy T*S    EENTRO =        -0.03459954
  eigenvalues    EBANDS =     -3047.28583101
  atomic energy  EATOM  =     43555.16572946
  Solvation  Ediel_sol  =         0.00000000
  ---------------------------------------------------
  free energy    TOTEN  =     -1064.68552122 eV

  energy without entropy =    -1064.65092168  energy(sigma->0) =    -1064.66822145


--------------------------------------------------------------------------------------------------------




--------------------------------------- Iteration      1(   8)  ---------------------------------------


    POTLOK:  cpu time    0.0895: real time    0.0903
    SETDIJ:  cpu time    0.0110: real time    0.0110
    EDDIAG:  cpu time    3.4509: real time    3.4541
  RMM-DIIS:  cpu time    9.8383: real time    9.8437
    ORTHCH:  cpu time    0.8298: real time    0.8302
       DOS:  cpu time    0.0008: real time    0.0008
    CHARGE:  cpu time    0.9694: real time    0.9703
    MIXING:  cpu time    0.0032: real time    0.0091
    --------------------------------------------
      LOOP:  cpu time   15.1929: real time   15.2094

 eigenvalue-minimisations  :  4808
 total energy-change (2. order) : 0.6181198E+02  (-0.2120605E+02)
 number of electron     796.0000091 magnetization 
 augmentation part      232.0667260 magnetization 

 DIPCOR: dipole corrections for dipol
 direction  3 min pos   152,
 dipolmoment           0.000000      0.000000      0.809898 electrons x Angstroem
 Tr[quadrupol]    -33655.965321

 energy correction for charged system         0.000000 eV
 dipol+quadrupol energy correction           -0.015661 eV
 added-field ion interaction         25.622914 eV  (added to PSCEN)


 Broyden mixing:
  rms(total) = 0.36767E+01    rms(broyden)= 0.36764E+01
  rms(prec ) = 0.42377E+01
  weight for this iteration     100.00

 eigenvalues of (default mixing * dielectric matrix)
  average eigenvalue GAMMA=   1.3631
  1.3631

 Free energy of the ion-electron system (eV)
  ---------------------------------------------------
  alpha Z        PSCENC =      1139.93359765
  Ewald energy   TEWEN  =    175730.33885047
  -Hartree energ DENC   =   -220176.68756789
  -exchange      EXHF   =         0.00000000
  -V(xc)+E(xc)   XCENC  =     -2265.43337445
  PAW double counting   =     50318.21845805   -46343.38311347
  entropy T*S    EENTRO =        -0.03804338
  eigenvalues    EBANDS =     -2960.98808071
  atomic energy  EATOM  =     43555.16572946
  Solvation  Ediel_sol  =         0.00000000
  ---------------------------------------------------
  free energy    TOTEN  =     -1002.87354426 eV

  energy without entropy =    -1002.83550088  energy(sigma->0) =    -1002.85452257


--------------------------------------------------------------------------------------------------------




--------------------------------------- Iteration      1(   9)  ---------------------------------------


    POTLOK:  cpu time    0.0910: real time    0.0919
    SETDIJ:  cpu time    0.0110: real time    0.0110
    EDDIAG:  cpu time    3.4328: real time    3.4401
  RMM-DIIS:  cpu time   11.6637: real time   11.6693
    ORTHCH:  cpu time    0.8332: real time    0.8335
       DOS:  cpu time    0.0008: real time    0.0008
    CHARGE:  cpu time    0.9276: real time    0.9281
    MIXING:  cpu time    0.0031: real time    0.0032
    --------------------------------------------
      LOOP:  cpu time   16.9632: real time   16.9778

 eigenvalue-minimisations  :  5652
 total energy-change (2. order) :-0.3393166E+03  (-0.7494571E+02)
 number of electron     796.0000104 magnetization 
 augmentation part      245.4092402 magnetization 

 DIPCOR: dipole corrections for dipol
 direction  3 min pos   148,
 dipolmoment           0.000000      0.000000     -6.899019 electrons x Angstroem
 Tr[quadrupol]    -33645.951768

 energy correction for charged system         0.000000 eV
 dipol+quadrupol energy correction           -1.136419 eV
 added-field ion interaction       -117.884227 eV  (added to PSCEN)


 Broyden mixing:
  rms(total) = 0.11280E+02    rms(broyden)= 0.11280E+02
  rms(prec ) = 0.18276E+02
  weight for this iteration     100.00

 eigenvalues of (default mixing * dielectric matrix)
  average eigenvalue GAMMA=   0.8217
  1.4970  0.1464

 Free energy of the ion-electron system (eV)
  ---------------------------------------------------
  alpha Z        PSCENC =       995.30569841
  Ewald energy   TEWEN  =    175730.33885047
  -Hartree energ DENC   =   -220059.39376554
  -exchange      EXHF   =         0.00000000
  -V(xc)+E(xc)   XCENC  =     -2260.09597408
  PAW double counting   =     56126.74562704   -52215.54463860
  entropy T*S    EENTRO =        -0.02925762
  eigenvalues    EBANDS =     -3214.68243037
  atomic energy  EATOM  =     43555.16572946
  Solvation  Ediel_sol  =         0.00000000
  ---------------------------------------------------
  free energy    TOTEN  =     -1342.19016082 eV

  energy without entropy =    -1342.16090320  energy(sigma->0) =    -1342.17553201


--------------------------------------------------------------------------------------------------------




--------------------------------------- Iteration      1(  10)  ---------------------------------------


    POTLOK:  cpu time    0.0903: real time    0.0904
    SETDIJ:  cpu time    0.0110: real time    0.0110
    EDDIAG:  cpu time    4.5200: real time    4.5257
  RMM-DIIS:  cpu time    9.7107: real time    9.7150
    ORTHCH:  cpu time    0.8320: real time    0.8323
       DOS:  cpu time    0.0007: real time    0.0007
    CHARGE:  cpu time    0.9330: real time    0.9335
    MIXING:  cpu time    0.0034: real time    0.0034
    --------------------------------------------
      LOOP:  cpu time   16.1011: real time   16.1119

 eigenvalue-minimisations  :  4838
 total energy-change (2. order) : 0.3402566E+03  (-0.1582083E+02)
 number of electron     796.0000096 magnetization 
 augmentation part      237.6603498 magnetization 

 DIPCOR: dipole corrections for dipol
 direction  3 min pos   152,
 dipolmoment           0.000000      0.000000     -1.021880 electrons x Angstroem
 Tr[quadrupol]    -33665.675696

 energy correction for charged system         0.000000 eV
 dipol+quadrupol energy correction           -0.024932 eV
 added-field ion interaction        -32.329425 eV  (added to PSCEN)


 Broyden mixing:
  rms(total) = 0.34122E+01    rms(broyden)= 0.34121E+01
  rms(prec ) = 0.45976E+01
  weight for this iteration     100.00

 eigenvalues of (default mixing * dielectric matrix)
  average eigenvalue GAMMA=   0.6493
  1.5238  0.2464  0.1778

 Free energy of the ion-electron system (eV)
  ---------------------------------------------------
  alpha Z        PSCENC =      1081.97198713
  Ewald energy   TEWEN  =    175730.33885047
  -Hartree energ DENC   =   -220369.36637071
  -exchange      EXHF   =         0.00000000
  -V(xc)+E(xc)   XCENC  =     -2259.55820962
  PAW double counting   =     57794.17114341   -53898.74647252
  entropy T*S    EENTRO =        -0.04795899
  eigenvalues    EBANDS =     -2635.86225337
  atomic energy  EATOM  =     43555.16572946
  Solvation  Ediel_sol  =         0.00000000
  ---------------------------------------------------
  free energy    TOTEN  =     -1001.93355473 eV

  energy without entropy =    -1001.88559574  energy(sigma->0) =    -1001.90957524


--------------------------------------------------------------------------------------------------------




--------------------------------------- Iteration      1(  11)  ---------------------------------------


    POTLOK:  cpu time    0.0896: real time    0.0914
    SETDIJ:  cpu time    0.0110: real time    0.0110
    EDDIAG:  cpu time    3.4475: real time    3.4485
  RMM-DIIS:  cpu time   11.0662: real time   11.0707
    ORTHCH:  cpu time    0.8310: real time    0.8313
       DOS:  cpu time    0.0008: real time    0.0008
    CHARGE:  cpu time    0.9335: real time    0.9338
    MIXING:  cpu time    0.0034: real time    0.0034
    --------------------------------------------
      LOOP:  cpu time   16.3828: real time   16.3909

 eigenvalue-minimisations  :  5465
 total energy-change (2. order) : 0.9138876E+01  (-0.5965946E+01)
 number of electron     796.0000102 magnetization 
 augmentation part      236.9098409 magnetization 

 DIPCOR: dipole corrections for dipol
 direction  3 min pos   154,
 dipolmoment           0.000000      0.000000     -1.969360 electrons x Angstroem
 Tr[quadrupol]    -33665.727543

 energy correction for charged system         0.000000 eV
 dipol+quadrupol energy correction           -0.092601 eV
 added-field ion interaction        -76.632254 eV  (added to PSCEN)


 Broyden mixing:
  rms(total) = 0.19616E+01    rms(broyden)= 0.19616E+01
  rms(prec ) = 0.32419E+01
  weight for this iteration     100.00

 eigenvalues of (default mixing * dielectric matrix)
  average eigenvalue GAMMA=   0.6258
  1.5122  0.6325  0.2233  0.1352

 Free energy of the ion-electron system (eV)
  ---------------------------------------------------
  alpha Z        PSCENC =      1037.60149014
  Ewald energy   TEWEN  =    175730.33885047
  -Hartree energ DENC   =   -220443.67740238
  -exchange      EXHF   =         0.00000000
  -V(xc)+E(xc)   XCENC  =     -2259.33444480
  PAW double counting   =     58472.60437846   -54583.71539171
  entropy T*S    EENTRO =        -0.03880412
  eigenvalues    EBANDS =     -2501.73908461
  atomic energy  EATOM  =     43555.16572946
  Solvation  Ediel_sol  =         0.00000000
  ---------------------------------------------------
  free energy    TOTEN  =      -992.79467907 eV

  energy without entropy =     -992.75587495  energy(sigma->0) =     -992.77527701


--------------------------------------------------------------------------------------------------------




--------------------------------------- Iteration      1(  12)  ---------------------------------------


    POTLOK:  cpu time    0.0902: real time    0.0909
    SETDIJ:  cpu time    0.0110: real time    0.0110
    EDDIAG:  cpu time    3.4496: real time    3.4512
  RMM-DIIS:  cpu time   12.8924: real time   12.8977
    ORTHCH:  cpu time    0.8262: real time    0.8265
       DOS:  cpu time    0.0008: real time    0.0008
    CHARGE:  cpu time    0.9280: real time    0.9284
    MIXING:  cpu time    0.0036: real time    0.0036
    --------------------------------------------
      LOOP:  cpu time   18.2016: real time   18.2101

 eigenvalue-minimisations  :  6225
 total energy-change (2. order) : 0.1773122E+01  (-0.3359232E+01)
 number of electron     796.0000101 magnetization 
 augmentation part      237.3780096 magnetization 

 DIPCOR: dipole corrections for dipol
 direction  3 min pos   155,
 dipolmoment           0.000000      0.000000     -1.249073 electrons x Angstroem
 Tr[quadrupol]    -33669.289375

 energy correction for charged system         0.000000 eV
 dipol+quadrupol energy correction           -0.037251 eV
 added-field ion interaction        -53.147766 eV  (added to PSCEN)


 Broyden mixing:
  rms(total) = 0.15966E+01    rms(broyden)= 0.15966E+01
  rms(prec ) = 0.22753E+01
  weight for this iteration     100.00

 eigenvalues of (default mixing * dielectric matrix)
  average eigenvalue GAMMA=   0.5918
  1.5366  0.8435  0.2237  0.2237  0.1312

 Free energy of the ion-electron system (eV)
  ---------------------------------------------------
  alpha Z        PSCENC =      1061.14132706
  Ewald energy   TEWEN  =    175730.33885047
  -Hartree energ DENC   =   -220481.05224244
  -exchange      EXHF   =         0.00000000
  -V(xc)+E(xc)   XCENC  =     -2258.49515953
  PAW double counting   =     59153.05782598   -55270.93888813
  entropy T*S    EENTRO =        -0.03454302
  eigenvalues    EBANDS =     -2480.20445712
  atomic energy  EATOM  =     43555.16572946
  Solvation  Ediel_sol  =         0.00000000
  ---------------------------------------------------
  free energy    TOTEN  =      -991.02155726 eV

  energy without entropy =     -990.98701424  energy(sigma->0) =     -991.00428575


--------------------------------------------------------------------------------------------------------




--------------------------------------- Iteration      1(  13)  ---------------------------------------


    POTLOK:  cpu time    0.0949: real time    0.0955
    SETDIJ:  cpu time    0.0109: real time    0.0109
    EDDIAG:  cpu time    3.4442: real time    3.4455
  RMM-DIIS:  cpu time   11.0688: real time   11.0731
    ORTHCH:  cpu time    0.8267: real time    0.8273
       DOS:  cpu time    0.0007: real time    0.0007
    CHARGE:  cpu time    0.9286: real time    0.9289
    MIXING:  cpu time    0.0034: real time    0.0034
    --------------------------------------------
      LOOP:  cpu time   16.3782: real time   16.3854

 eigenvalue-minimisations  :  5408
 total energy-change (2. order) : 0.3616668E+01  (-0.9934275E+00)
 number of electron     796.0000101 magnetization 
 augmentation part      237.0659670 magnetization 

 DIPCOR: dipole corrections for dipol
 direction  3 min pos   155,
 dipolmoment           0.000000      0.000000     -1.293507 electrons x Angstroem
 Tr[quadrupol]    -33670.887533

 energy correction for charged system         0.000000 eV
 dipol+quadrupol energy correction           -0.039949 eV
 added-field ion interaction        -55.038431 eV  (added to PSCEN)


 Broyden mixing:
  rms(total) = 0.67341E+00    rms(broyden)= 0.67340E+00
  rms(prec ) = 0.94620E+00
  weight for this iteration     100.00

 eigenvalues of (default mixing * dielectric matrix)
  average eigenvalue GAMMA=   0.6337
  1.6452  1.0812  0.5098  0.2495  0.1852  0.1314

 Free energy of the ion-electron system (eV)
  ---------------------------------------------------
  alpha Z        PSCENC =      1059.24796471
  Ewald energy   TEWEN  =    175730.33885047
  -Hartree energ DENC   =   -220526.65689518
  -exchange      EXHF   =         0.00000000
  -V(xc)+E(xc)   XCENC  =     -2257.77854180
  PAW double counting   =     59759.69984102   -55883.37826134
  entropy T*S    EENTRO =        -0.02989187
  eigenvalues    EBANDS =     -2424.01368433
  atomic energy  EATOM  =     43555.16572946
  Solvation  Ediel_sol  =         0.00000000
  ---------------------------------------------------
  free energy    TOTEN  =      -987.40488886 eV

  energy without entropy =     -987.37499700  energy(sigma->0) =     -987.38994293


--------------------------------------------------------------------------------------------------------




--------------------------------------- Iteration      1(  14)  ---------------------------------------


    POTLOK:  cpu time    0.0899: real time    0.0906
    SETDIJ:  cpu time    0.0110: real time    0.0110
    EDDIAG:  cpu time    3.4443: real time    3.4455
  RMM-DIIS:  cpu time   11.1670: real time   11.1765
    ORTHCH:  cpu time    0.8642: real time    0.8643
       DOS:  cpu time    0.0008: real time    0.0008
    CHARGE:  cpu time    0.9287: real time    0.9289
    MIXING:  cpu time    0.0040: real time    0.0040
    --------------------------------------------
      LOOP:  cpu time   16.5099: real time   16.5216

 eigenvalue-minimisations  :  5458
 total energy-change (2. order) : 0.9083930E-01  (-0.4403834E+00)
 number of electron     796.0000100 magnetization 
 augmentation part      236.9880508 magnetization 

 DIPCOR: dipole corrections for dipol
 direction  3 min pos   155,
 dipolmoment           0.000000      0.000000     -1.355869 electrons x Angstroem
 Tr[quadrupol]    -33672.902085

 energy correction for charged system         0.000000 eV
 dipol+quadrupol energy correction           -0.043893 eV
 added-field ion interaction        -57.691919 eV  (added to PSCEN)


 Broyden mixing:
  rms(total) = 0.67660E+00    rms(broyden)= 0.67660E+00
  rms(prec ) = 0.91590E+00
  weight for this iteration     100.00

 eigenvalues of (default mixing * dielectric matrix)
  average eigenvalue GAMMA=   0.6795
  1.9692  1.2847  0.6904  0.2568  0.2453  0.1298  0.1803

 Free energy of the ion-electron system (eV)
  ---------------------------------------------------
  alpha Z        PSCENC =      1056.59053186
  Ewald energy   TEWEN  =    175730.33885047
  -Hartree energ DENC   =   -220582.41072173
  -exchange      EXHF   =         0.00000000
  -V(xc)+E(xc)   XCENC  =     -2256.94774696
  PAW double counting   =     60445.97736409   -56576.16304092
  entropy T*S    EENTRO =        -0.03737989
  eigenvalues    EBANDS =     -2359.82763596
  atomic energy  EATOM  =     43555.16572946
  Solvation  Ediel_sol  =         0.00000000
  ---------------------------------------------------
  free energy    TOTEN  =      -987.31404956 eV

  energy without entropy =     -987.27666968  energy(sigma->0) =     -987.29535962


--------------------------------------------------------------------------------------------------------




--------------------------------------- Iteration      1(  15)  ---------------------------------------


    POTLOK:  cpu time    0.0899: real time    0.0915
    SETDIJ:  cpu time    0.0109: real time    0.0109
    EDDIAG:  cpu time    3.4544: real time    3.4562
  RMM-DIIS:  cpu time   10.3968: real time   10.4017
    ORTHCH:  cpu time    0.8265: real time    0.8268
       DOS:  cpu time    0.0008: real time    0.0008
    CHARGE:  cpu time    0.9274: real time    0.9278
    MIXING:  cpu time    0.0040: real time    0.0040
    --------------------------------------------
      LOOP:  cpu time   15.7106: real time   15.7196

 eigenvalue-minimisations  :  5120
 total energy-change (2. order) : 0.6450854E+00  (-0.1806727E+00)
 number of electron     796.0000100 magnetization 
 augmentation part      236.8166391 magnetization 

 DIPCOR: dipole corrections for dipol
 direction  3 min pos   155,
 dipolmoment           0.000000      0.000000     -1.436589 electrons x Angstroem
 Tr[quadrupol]    -33674.810730

 energy correction for charged system         0.000000 eV
 dipol+quadrupol energy correction           -0.049275 eV
 added-field ion interaction        -61.126560 eV  (added to PSCEN)


 Broyden mixing:
  rms(total) = 0.38897E+00    rms(broyden)= 0.38897E+00
  rms(prec ) = 0.57681E+00
  weight for this iteration     100.00

 eigenvalues of (default mixing * dielectric matrix)
  average eigenvalue GAMMA=   0.6547
  2.0229  1.3254  0.7423  0.3705  0.1306  0.2569  0.1730  0.2161

 Free energy of the ion-electron system (eV)
  ---------------------------------------------------
  alpha Z        PSCENC =      1053.15050940
  Ewald energy   TEWEN  =    175730.33885047
  -Hartree energ DENC   =   -220640.34993174
  -exchange      EXHF   =         0.00000000
  -V(xc)+E(xc)   XCENC  =     -2255.88119647
  PAW double counting   =     61194.40856361   -57331.62572784
  entropy T*S    EENTRO =        -0.03464816
  eigenvalues    EBANDS =     -2291.84111288
  atomic energy  EATOM  =     43555.16572946
  Solvation  Ediel_sol  =         0.00000000
  ---------------------------------------------------
  free energy    TOTEN  =      -986.66896415 eV

  energy without entropy =     -986.63431598  energy(sigma->0) =     -986.65164006


--------------------------------------------------------------------------------------------------------




--------------------------------------- Iteration      1(  16)  ---------------------------------------


    POTLOK:  cpu time    0.0906: real time    0.0912
    SETDIJ:  cpu time    0.0111: real time    0.0111
    EDDIAG:  cpu time    3.5558: real time    3.5581
  RMM-DIIS:  cpu time   11.1189: real time   11.1248
    ORTHCH:  cpu time    0.8322: real time    0.8326
       DOS:  cpu time    0.0007: real time    0.0007
    CHARGE:  cpu time    0.9269: real time    0.9278
    MIXING:  cpu time    0.0041: real time    0.0041
    --------------------------------------------
      LOOP:  cpu time   16.5403: real time   16.5503

 eigenvalue-minimisations  :  5423
 total energy-change (2. order) : 0.1638270E+00  (-0.7837191E-01)
 number of electron     796.0000099 magnetization 
 augmentation part      236.7745884 magnetization 

 DIPCOR: dipole corrections for dipol
 direction  3 min pos   155,
 dipolmoment           0.000000      0.000000     -1.464373 electrons x Angstroem
 Tr[quadrupol]    -33675.785299

 energy correction for charged system         0.000000 eV
 dipol+quadrupol energy correction           -0.051200 eV
[...]
    --------------------------------------------
      LOOP:  cpu time   10.4671: real time   10.4717

 eigenvalue-minimisations  :  2459
 total energy-change (2. order) :-0.2050292E-05  (-0.8062576E-06)
 number of electron     796.0000092 magnetization 
 augmentation part      236.8467881 magnetization 

 DIPCOR: dipole corrections for dipol
 direction  3 min pos   151,
 dipolmoment           0.000000      0.000000     -1.682024 electrons x Angstroem
 Tr[quadrupol]    -33680.310477

 energy correction for charged system         0.000000 eV
 dipol+quadrupol energy correction           -0.067550 eV
 added-field ion interaction        -47.005571 eV  (added to PSCEN)


 eigenvalues of (default mixing * dielectric matrix)
  average eigenvalue GAMMA=   0.2671
  0.2671

  free energy =  -0.986346384665E+03  energy without entropy=  -0.986311658283E+03


--------------------------------------------------------------------------------------------------------




--------------------------------------- Iteration     22(   3)  ---------------------------------------


    POTLOK:  cpu time    0.0938: real time    0.0940
    SETDIJ:  cpu time    0.0110: real time    0.0110
    EDDIAG:  cpu time    3.4387: real time    3.4403
  RMM-DIIS:  cpu time    5.2347: real time    5.2382
    ORTHCH:  cpu time    0.8270: real time    0.8274
       DOS:  cpu time    0.0008: real time    0.0008
    CHARGE:  cpu time    0.9258: real time    0.9261
    MIXING:  cpu time    0.0031: real time    0.0031
    --------------------------------------------
      LOOP:  cpu time   10.5349: real time   10.5409

 eigenvalue-minimisations  :  2309
 total energy-change (2. order) : 0.1931425E-05  (-0.2518304E-06)
 number of electron     796.0000092 magnetization 
 augmentation part      236.8467587 magnetization 

 DIPCOR: dipole corrections for dipol
 direction  3 min pos   151,
 dipolmoment           0.000000      0.000000     -1.682152 electrons x Angstroem
 Tr[quadrupol]    -33680.310321

 energy correction for charged system         0.000000 eV
 dipol+quadrupol energy correction           -0.067561 eV
 added-field ion interaction        -47.009145 eV  (added to PSCEN)


 eigenvalues of (default mixing * dielectric matrix)
  average eigenvalue GAMMA=   0.2765
  0.3460  0.2071

  free energy =  -0.986346382734E+03  energy without entropy=  -0.986311657282E+03


--------------------------------------------------------------------------------------------------------




--------------------------------------- Iteration     22(   4)  ---------------------------------------


    POTLOK:  cpu time    0.0939: real time    0.0942
    SETDIJ:  cpu time    0.0109: real time    0.0109
    EDDIAG:  cpu time    3.4565: real time    3.4574
  RMM-DIIS:  cpu time    3.5791: real time    3.5809
    ORTHCH:  cpu time    0.8274: real time    0.8277
       DOS:  cpu time    0.0008: real time    0.0008
    CHARGE:  cpu time    0.9301: real time    0.9304
    MIXING:  cpu time    0.0032: real time    0.0032
    --------------------------------------------
      LOOP:  cpu time    8.9019: real time    8.9055

 eigenvalue-minimisations  :   594
 total energy-change (2. order) : 0.1429726E-06  (-0.1299067E-07)
 number of electron     796.0000092 magnetization 
 augmentation part      236.8467663 magnetization 

 DIPCOR: dipole corrections for dipol
 direction  3 min pos   151,
 dipolmoment           0.000000      0.000000     -1.682019 electrons x Angstroem
 Tr[quadrupol]    -33680.310943

 energy correction for charged system         0.000000 eV
 dipol+quadrupol energy correction           -0.067550 eV
 added-field ion interaction        -47.005433 eV  (added to PSCEN)


 eigenvalues of (default mixing * dielectric matrix)
  average eigenvalue GAMMA=   0.2568
  0.3637  0.2631  0.1436

  free energy =  -0.986346382591E+03  energy without entropy=  -0.986311660732E+03


--------------------------------------------------------------------------------------------------------




--------------------------------------- Iteration     22(   5)  ---------------------------------------


    POTLOK:  cpu time    0.0932: real time    0.0939
    SETDIJ:  cpu time    0.0110: real time    0.0110
    EDDIAG:  cpu time    3.4430: real time    3.4442
  RMM-DIIS:  cpu time    3.2677: real time    3.2691
    ORTHCH:  cpu time    0.8969: real time    0.8969
       DOS:  cpu time    0.0114: real time    0.0114
    --------------------------------------------
      LOOP:  cpu time    7.7232: real time    7.7265

 eigenvalue-minimisations  :   352
 total energy-change (2. order) : 0.1291482E-07  (-0.5507077E-08)
 number of electron     796.0000092 magnetization 
 augmentation part      236.8467663 magnetization 

 DIPCOR: dipole corrections for dipol
 direction  3 min pos   151,
 dipolmoment           0.000000      0.000000     -1.682177 electrons x Angstroem
 Tr[quadrupol]    -33680.310697

 energy correction for charged system         0.000000 eV
 dipol+quadrupol energy correction           -0.067563 eV
 added-field ion interaction        -47.009854 eV  (added to PSCEN)


  free energy =  -0.986346382578E+03  energy without entropy=  -0.986311654611E+03


--------------------------------------------------------------------------------------------------------




------------------------ aborting loop because EDIFF is reached ----------------------------------------


    CHARGE:  cpu time    0.9280: real time    0.9285
    FORLOC:  cpu time    0.0576: real time    0.0576
    FORNL :  cpu time    3.6001: real time    3.6014
    STRESS:  cpu time   10.6225: real time   10.6262
    FORCOR:  cpu time    0.1199: real time    0.1199
    FORHAR:  cpu time    0.0728: real time    0.0728
    MIXING:  cpu time    0.0033: real time    0.0033
    OFIELD:  cpu time    0.0001: real time    0.0001

  Number of pair interactions contributing to vdW energy:  560654
  Edisp (eV):   -9.37976
    FORVDW:  cpu time    0.0752: real time    0.0752

  FORCE on cell =-STRESS in cart. coord.  units (eV):
  Direction    XX          YY          ZZ          XY          YZ          ZX
  --------------------------------------------------------------------------------------
  Alpha Z  1114.32634  1114.32634  1114.32634
  Ewald  205430.55483204559.05311************   -72.50123   365.20754   279.23824
  Hartree214541.33320213790.89692************  -143.17508   367.63739   250.14916
  E(xc)   -3651.03165 -3650.35491 -3657.00026    -0.07024    -0.22776    -0.05396
  Local  ************************430245.87871   222.55601  -750.82471  -541.24270
  n-local   657.75110   657.73872   466.97154     2.51775    -1.65222    -0.31711
  augment  3839.05231  3833.76538  3854.28629     0.05424     1.27785     0.58573
  Kinetic  9845.96586  9828.80998 10007.50868    -8.53470    18.47297    11.74792
  Fock        0.00000     0.00000     0.00000     0.00000     0.00000     0.00000
  vdW       -10.13867   -10.05566    -8.47723     0.01670    -0.11453     0.02880
  -------------------------------------------------------------------------------------
  Total    -103.24501   -99.07126  -116.19852     0.86347    -0.22347     0.13608
  in kB     -43.24824   -41.49990   -48.67433     0.36170    -0.09361     0.05700
  external pressure =      -44.47 kB  Pullay stress =        0.00 kB



--------------------------------------------------------------------------------------------------------



  FREE ENERGIE OF THE ION-ELECTRON SYSTEM (eV)
  ---------------------------------------------------
  free  energy   TOTEN  =      -995.72613978 eV

  energy  without entropy=     -995.69141181  energy(sigma->0) =     -995.70877579
 
 d Force = 0.7442678E-07[-0.520E-08, 0.154E-06]  d Energy =-0.2290427E-06 0.303E-06
 d Force =-0.1278447E+00[-0.128E+00,-0.128E+00]  d Ewald  =-0.1278447E+00 0.873E-10


--------------------------------------------------------------------------------------------------------


    POTLOK:  cpu time    0.1132: real time    0.1134


--------------------------------------------------------------------------------------------------------




--------------------------------------------------------------------------------------------------------


    WAVPRE:  cpu time    0.0554: real time    0.0570
    FEWALD:  cpu time    0.0032: real time    0.0032
    ORTHCH:  cpu time    1.9856: real time    1.9863
     LOOP+:  cpu time   77.0938: real time   77.1291


--------------------------------------- Iteration     23(   1)  ---------------------------------------


    POTLOK:  cpu time    0.0946: real time    0.0949
    SETDIJ:  cpu time    0.0110: real time    0.0110
     EDDAV:  cpu time   18.7515: real time   18.7587
       DOS:  cpu time    0.0036: real time    0.0036
    CHARGE:  cpu time    0.9245: real time    0.9249
    MIXING:  cpu time    0.0056: real time    0.0056
    --------------------------------------------
      LOOP:  cpu time   19.7908: real time   19.7986

 eigenvalue-minimisations  :  4848
 total energy-change (2. order) :-0.2889187E-03  (-0.2241837E-02)
 number of electron     796.0000091 magnetization 
 augmentation part      236.8469192 magnetization 

 DIPCOR: dipole corrections for dipol
 direction  3 min pos   151,
 dipolmoment           0.000000      0.000000     -1.682167 electrons x Angstroem
 Tr[quadrupol]    -33680.022467

 energy correction for charged system         0.000000 eV
 dipol+quadrupol energy correction           -0.067562 eV
 added-field ion interaction        -47.009148 eV  (added to PSCEN)


  free energy =  -0.986346671509E+03  energy without entropy=  -0.986311944425E+03


--------------------------------------------------------------------------------------------------------




--------------------------------------- Iteration     23(   2)  ---------------------------------------


    POTLOK:  cpu time    0.0931: real time    0.0945
    SETDIJ:  cpu time    0.0110: real time    0.0110
    EDDIAG:  cpu time    3.4677: real time    3.4692
  RMM-DIIS:  cpu time    9.3828: real time    9.3928
    ORTHCH:  cpu time    0.8217: real time    0.8220
       DOS:  cpu time    0.0008: real time    0.0007
    CHARGE:  cpu time    0.9257: real time    0.9261
    MIXING:  cpu time    0.0029: real time    0.0029
    --------------------------------------------
      LOOP:  cpu time   14.7057: real time   14.7193

 eigenvalue-minimisations  :  4686
 total energy-change (2. order) :-0.4464920E-04  (-0.5165866E-04)
 number of electron     796.0000091 magnetization 
 augmentation part      236.8470493 magnetization 

 DIPCOR: dipole corrections for dipol
 direction  3 min pos   151,
 dipolmoment           0.000000      0.000000     -1.682016 electrons x Angstroem
 Tr[quadrupol]    -33680.024660

 energy correction for charged system         0.000000 eV
 dipol+quadrupol energy correction           -0.067550 eV
 added-field ion interaction        -47.004936 eV  (added to PSCEN)


 eigenvalues of (default mixing * dielectric matrix)
  average eigenvalue GAMMA=   0.9246
  0.9246

  free energy =  -0.986346716158E+03  energy without entropy=  -0.986312001193E+03


--------------------------------------------------------------------------------------------------------




--------------------------------------- Iteration     23(   3)  ---------------------------------------


    POTLOK:  cpu time    0.0929: real time    0.0938
    SETDIJ:  cpu time    0.0111: real time    0.0111
    EDDIAG:  cpu time    3.4376: real time    3.4387
  RMM-DIIS:  cpu time    8.4496: real time    8.4530
    ORTHCH:  cpu time    0.8191: real time    0.8191
       DOS:  cpu time    0.0008: real time    0.0007
    CHARGE:  cpu time    0.9248: real time    0.9251
    MIXING:  cpu time    0.0031: real time    0.0031
    --------------------------------------------
      LOOP:  cpu time   13.7389: real time   13.7447

 eigenvalue-minimisations  :  4041
 total energy-change (2. order) :-0.2443844E-04  (-0.7240818E-05)
 number of electron     796.0000091 magnetization 
 augmentation part      236.8469539 magnetization 

 DIPCOR: dipole corrections for dipol
 direction  3 min pos   151,
 dipolmoment           0.000000      0.000000     -1.683916 electrons x Angstroem
 Tr[quadrupol]    -33680.020690

 energy correction for charged system         0.000000 eV
 dipol+quadrupol energy correction           -0.067702 eV
 added-field ion interaction        -47.058029 eV  (added to PSCEN)


 eigenvalues of (default mixing * dielectric matrix)
  average eigenvalue GAMMA=   0.6274
  1.0765  0.1783

  free energy =  -0.986346740597E+03  energy without entropy=  -0.986311954463E+03


--------------------------------------------------------------------------------------------------------




--------------------------------------- Iteration     23(   4)  ---------------------------------------


    POTLOK:  cpu time    0.0927: real time    0.0939
    SETDIJ:  cpu time    0.0110: real time    0.0110
    EDDIAG:  cpu time    3.4313: real time    3.4324
  RMM-DIIS:  cpu time    6.5443: real time    6.5466
    ORTHCH:  cpu time    0.8207: real time    0.8210
       DOS:  cpu time    0.0007: real time    0.0007
    CHARGE:  cpu time    0.9296: real time    0.9300
    MIXING:  cpu time    0.0032: real time    0.0032
    --------------------------------------------
      LOOP:  cpu time   11.8336: real time   11.8389

 eigenvalue-minimisations  :  3075
 total energy-change (2. order) : 0.2187658E-04  (-0.3248813E-05)
 number of electron     796.0000091 magnetization 
 augmentation part      236.8470108 magnetization 

 DIPCOR: dipole corrections for dipol
 direction  3 min pos   151,
 dipolmoment           0.000000      0.000000     -1.681594 electrons x Angstroem
 Tr[quadrupol]    -33680.027914

 energy correction for charged system         0.000000 eV
 dipol+quadrupol energy correction           -0.067516 eV
 added-field ion interaction        -46.993156 eV  (added to PSCEN)


 eigenvalues of (default mixing * dielectric matrix)
  average eigenvalue GAMMA=   0.6193
  1.2752  0.4783  0.1045

  free energy =  -0.986346718720E+03  energy without entropy=  -0.986312028436E+03


--------------------------------------------------------------------------------------------------------




--------------------------------------- Iteration     23(   5)  ---------------------------------------


    POTLOK:  cpu time    0.0932: real time    0.0947
    SETDIJ:  cpu time    0.0110: real time    0.0110
    EDDIAG:  cpu time    3.4409: real time    3.4424
  RMM-DIIS:  cpu time    6.0060: real time    6.0083
    ORTHCH:  cpu time    0.8227: real time    0.8230
       DOS:  cpu time    0.0008: real time    0.0008
    --------------------------------------------
      LOOP:  cpu time   10.3746: real time   10.3801

 eigenvalue-minimisations  :  2840
 total energy-change (2. order) : 0.4012531E-05  (-0.1823925E-05)
 number of electron     796.0000091 magnetization 
 augmentation part      236.8470108 magnetization 

 DIPCOR: dipole corrections for dipol
 direction  3 min pos   151,
 dipolmoment           0.000000      0.000000     -1.682825 electrons x Angstroem
 Tr[quadrupol]    -33680.025050

 energy correction for charged system         0.000000 eV
 dipol+quadrupol energy correction           -0.067615 eV
 added-field ion interaction        -47.027553 eV  (added to PSCEN)


  free energy =  -0.986346714708E+03  energy without entropy=  -0.986311967503E+03


--------------------------------------------------------------------------------------------------------




------------------------ aborting loop because EDIFF is reached ----------------------------------------


    CHARGE:  cpu time    0.9296: real time    0.9300
    FORLOC:  cpu time    0.0576: real time    0.0576
    FORNL :  cpu time    3.6046: real time    3.6056
    STRESS:  cpu time   10.6326: real time   10.6364
    FORCOR:  cpu time    0.1228: real time    0.1228
    FORHAR:  cpu time    0.0728: real time    0.0728
    MIXING:  cpu time    0.0034: real time    0.0034
    OFIELD:  cpu time    0.0001: real time    0.0001

  Number of pair interactions contributing to vdW energy:  560654
  Edisp (eV):   -9.37955
    FORVDW:  cpu time    0.0752: real time    0.0752

  FORCE on cell =-STRESS in cart. coord.  units (eV):
  Direction    XX          YY          ZZ          XY          YZ          ZX
  --------------------------------------------------------------------------------------
  Alpha Z  1114.32634  1114.32634  1114.32634
  Ewald  205429.43254204558.02047************   -72.70445   365.23141   278.93913
  Hartree214541.09229213790.99507************  -143.25306   367.50314   249.55107
  E(xc)   -3651.03462 -3650.35854 -3657.00412    -0.07077    -0.22821    -0.05375
  Local  ************************430245.06579   222.79397  -750.71749  -540.33988
  n-local   657.73807   657.73472   466.97576     2.51861    -1.65376    -0.31522
  augment  3839.05320  3833.76759  3854.28626     0.05469     1.27946     0.58763
  Kinetic  9846.02005  9828.84671 10007.48291    -8.51258    18.49197    11.72716
  Fock        0.00000     0.00000     0.00000     0.00000     0.00000     0.00000
  vdW       -10.13924   -10.05550    -8.47714     0.01680    -0.11477     0.02867
  -------------------------------------------------------------------------------------
  Total    -103.20081   -99.05922  -116.19986     0.84321    -0.20826     0.12481
  in kB     -43.22973   -41.49486   -48.67490     0.35321    -0.08724     0.05228
  external pressure =      -44.47 kB  Pullay stress =        0.00 kB



--------------------------------------------------------------------------------------------------------



  FREE ENERGIE OF THE ION-ELECTRON SYSTEM (eV)
  ---------------------------------------------------
  free  energy   TOTEN  =      -995.72626266 eV

  energy  without entropy=     -995.69151545  energy(sigma->0) =     -995.70888905
 
 d Force = 0.1183274E-03[ 0.574E-04, 0.179E-03]  d Energy = 0.1228791E-03-0.455E-05
 d Force = 0.1226010E+01[ 0.123E+01, 0.123E+01]  d Ewald  = 0.1226009E+01 0.260E-06


--------------------------------------------------------------------------------------------------------


    POTLOK:  cpu time    0.1136: real time    0.1136


--------------------------------------------------------------------------------------------------------


 Conjugate gradient step on ions:
 trial-energy change:   -0.000123  1 .order   -0.000118   -0.000179   -0.000057
  (g-gl).g = 0.801E-04      g.g   = 0.932E-04  gl.gl    = 0.193E-03
 g(Force)  = 0.932E-04   g(Stress)= 0.000E+00 ortho     = 0.133E-06
 gamma     =   0.41581
 trial     =   1.92122
 opt step  =   2.82673  (harmonic =   2.82673) maximal distance =0.00141937
 next E    =  -995.726272   (d E  =  -0.00013)


--------------------------------------------------------------------------------------------------------


  
 reached required accuracy - stopping structural energy minimisation
     LOOP+:  cpu time   86.1057: real time   86.1509
    4ORBIT:  cpu time    0.0000: real time    0.0000

 total amount of memory used by VASP MPI-rank0   179459. kBytes
=======================================================================

   base      :      30000. kBytes
   nonlr-proj:      38718. kBytes
   fftplans  :       6642. kBytes
   grid      :      34272. kBytes
   one-center:       1975. kBytes
   wavefun   :      67852. kBytes
 
  
  
 General timing and accounting informations for this job:
 ========================================================
  
                  Total CPU time used (sec):     3370.419
                            User time (sec):     3343.411
                          System time (sec):       27.009
                         Elapsed time (sec):     3373.492
  
                   Maximum memory used (kb):      496660.
                   Average memory used (kb):           0.
  
                          Minor page faults:      3092111
                          Major page faults:            0
                 Voluntary context switches:         6097
