 vasp.5.4.4.18Apr17-6-g9f103f2a35 (build Jun 30 2017 19:19:18) complex          
  
 executed on         MareNostrum4 date 2022.06.21  21:17:17
 running on   48 total cores
 distrk:  each k-point on   48 cores,    1 groups
 distr:  one band on NCORES_PER_BAND=   4 cores,   12 groups


--------------------------------------------------------------------------------------------------------


 INCAR:
 POTCAR:    PAW_PBE Au 04Oct2007                  
 POTCAR:    PAW_PBE O 08Apr2002                   
 POTCAR:    PAW_PBE C 08Apr2002                   
 POTCAR:    PAW_PBE N 08Apr2002                   
 POTCAR:    PAW_PBE H 15Jun2001                   
 POTCAR:    PAW_PBE Au 04Oct2007                  
  local pseudopotential read in
  partial core-charges read in
  partial kinetic energy density read in
  atomic valenz-charges read in
  non local Contribution for L=           2  read in
    real space projection operators read in
  non local Contribution for L=           2  read in
    real space projection operators read in
  non local Contribution for L=           0  read in
    real space projection operators read in
  non local Contribution for L=           0  read in
    real space projection operators read in
  non local Contribution for L=           1  read in
    real space projection operators read in
  non local Contribution for L=           1  read in
    real space projection operators read in
    PAW grid and wavefunctions read in
 
   number of l-projection  operators is LMAX  =           6
   number of lm-projection operators is LMMAX =          18
 
 POTCAR:    PAW_PBE O 08Apr2002                   
  local pseudopotential read in
  partial core-charges read in
  partial kinetic energy density read in
  kinetic energy density of atom read in
  atomic valenz-charges read in
  non local Contribution for L=           0  read in
    real space projection operators read in
  non local Contribution for L=           0  read in
    real space projection operators read in
  non local Contribution for L=           1  read in
    real space projection operators read in
  non local Contribution for L=           1  read in
    real space projection operators read in
    PAW grid and wavefunctions read in
 
   number of l-projection  operators is LMAX  =           4
   number of lm-projection operators is LMMAX =           8
 
 POTCAR:    PAW_PBE C 08Apr2002                   
  local pseudopotential read in
  partial core-charges read in
  partial kinetic energy density read in
  atomic valenz-charges read in
  non local Contribution for L=           0  read in
    real space projection operators read in
  non local Contribution for L=           0  read in
    real space projection operators read in
  non local Contribution for L=           1  read in
    real space projection operators read in
  non local Contribution for L=           1  read in
    real space projection operators read in
    PAW grid and wavefunctions read in
 
   number of l-projection  operators is LMAX  =           4
   number of lm-projection operators is LMMAX =           8
 
 POTCAR:    PAW_PBE N 08Apr2002                   
  local pseudopotential read in
  partial core-charges read in
  partial kinetic energy density read in
  atomic valenz-charges read in
  non local Contribution for L=           0  read in
    real space projection operators read in
  non local Contribution for L=           0  read in
    real space projection operators read in
  non local Contribution for L=           1  read in
    real space projection operators read in
  non local Contribution for L=           1  read in
    real space projection operators read in
    PAW grid and wavefunctions read in
 
   number of l-projection  operators is LMAX  =           4
   number of lm-projection operators is LMMAX =           8
 
 POTCAR:    PAW_PBE H 15Jun2001                   
  local pseudopotential read in
  atomic valenz-charges read in
  non local Contribution for L=           0  read in
    real space projection operators read in
  non local Contribution for L=           0  read in
    real space projection operators read in
  non local Contribution for L=           1  read in
    real space projection operators read in
    PAW grid and wavefunctions read in
 
   number of l-projection  operators is LMAX  =           3
   number of lm-projection operators is LMMAX =           5
 
 Optimization of the real space projectors (new method)

 maximal supplied QI-value         = 15.12
 optimisation between [QCUT,QGAM] = [ 10.73, 21.62] = [ 32.26,130.87] Ry 
 Optimized for a Real-space Cutoff    1.42 Angstroem

   l    n(q)    QCUT    max X(q) W(low)/X(q) W(high)/X(q)  e(spline) 
   2      8    10.734    60.898    0.15E-03    0.34E-03    0.26E-06
   2      8    10.734    58.894    0.16E-03    0.35E-03    0.27E-06
   0      9    10.734   109.617    0.92E-04    0.16E-03    0.12E-06
   0      9    10.734    75.026    0.89E-04    0.15E-03    0.11E-06
   1      9    10.734    16.344    0.25E-03    0.88E-04    0.14E-06
   1      9    10.734    10.160    0.20E-03    0.77E-04    0.11E-06
 Optimization of the real space projectors (new method)

 maximal supplied QI-value         = 24.76
 optimisation between [QCUT,QGAM] = [ 10.64, 21.54] = [ 31.73,129.89] Ry 
 Optimized for a Real-space Cutoff    1.23 Angstroem

   l    n(q)    QCUT    max X(q) W(low)/X(q) W(high)/X(q)  e(spline) 
   0      8    10.645    20.381    0.38E-03    0.60E-03    0.15E-06
   0      8    10.645    15.268    0.40E-03    0.65E-03    0.17E-06
   1      7    10.645     5.964    0.30E-03    0.63E-03    0.18E-06
   1      7    10.645     5.382    0.24E-03    0.53E-03    0.16E-06
 Optimization of the real space projectors (new method)

 maximal supplied QI-value         = 25.13
 optimisation between [QCUT,QGAM] = [ 10.81, 21.61] = [ 32.71,130.83] Ry 
 Optimized for a Real-space Cutoff    1.23 Angstroem

   l    n(q)    QCUT    max X(q) W(low)/X(q) W(high)/X(q)  e(spline) 
   0      8    10.807   115.676    0.36E-03    0.72E-03    0.24E-06
   0      8    10.807    87.132    0.35E-03    0.71E-03    0.24E-06
   1      7    10.807     4.429    0.19E-03    0.39E-03    0.11E-06
   1      7    10.807     2.733    0.14E-03    0.28E-03    0.13E-06
 Optimization of the real space projectors (new method)

 maximal supplied QI-value         = 25.13
 optimisation between [QCUT,QGAM] = [ 10.81, 21.61] = [ 32.71,130.83] Ry 
 Optimized for a Real-space Cutoff    1.23 Angstroem

   l    n(q)    QCUT    max X(q) W(low)/X(q) W(high)/X(q)  e(spline) 
   0      8    10.807    79.467    0.34E-03    0.68E-03    0.21E-06
   0      8    10.807    66.151    0.34E-03    0.67E-03    0.21E-06
   1      7    10.807    14.030    0.45E-03    0.13E-02    0.11E-05
   1      7    10.807     9.831    0.48E-03    0.13E-02    0.11E-05
 Optimization of the real space projectors (new method)

 maximal supplied QI-value         = 34.20
 optimisation between [QCUT,QGAM] = [ 10.60, 21.55] = [ 31.48,130.03] Ry 
 Optimized for a Real-space Cutoff    1.23 Angstroem

   l    n(q)    QCUT    max X(q) W(low)/X(q) W(high)/X(q)  e(spline) 
   0      8    10.603    19.460    0.37E-03    0.59E-03    0.23E-06
   0      8    10.603    12.209    0.35E-03    0.56E-03    0.22E-06
   1      7    10.603     4.655    0.70E-04    0.28E-03    0.29E-06
  PAW_PBE Au 04Oct2007                  :
 energy of atom  1       EATOM= -926.0867
 kinetic energy error for atom=    0.0057 (will be added to EATOM!!)
  PAW_PBE O 08Apr2002                   :
 energy of atom  2       EATOM= -432.3788
 kinetic energy error for atom=    0.0389 (will be added to EATOM!!)
  PAW_PBE C 08Apr2002                   :
 energy of atom  3       EATOM= -147.1560
 kinetic energy error for atom=    0.0116 (will be added to EATOM!!)
  PAW_PBE N 08Apr2002                   :
 energy of atom  4       EATOM= -264.5486
 kinetic energy error for atom=    0.0253 (will be added to EATOM!!)
  PAW_PBE H 15Jun2001                   :
 energy of atom  5       EATOM=  -12.4884
 kinetic energy error for atom=    0.0045 (will be added to EATOM!!)
 
 
 POSCAR: Au  O  C  N  H                          
  positions in direct lattice
  velocities in cartesian coordinates
 exchange correlation table for  LEXCH =        8
   RHO(1)=    0.500       N(1)  =     2000
   RHO(2)=  100.500       N(2)  =     4000
 


--------------------------------------------------------------------------------------------------------


 ion  position               nearest neighbor table
   1  0.000  0.000  0.000- 102 2.94  57 2.94  13 2.94 101 2.94   2 2.94 156 2.94  56 2.94  68 2.94
                           114 2.94
   2  0.083  0.083  0.000-   3 2.94   7 2.94   4 2.94 102 2.94  14 2.94  15 2.94   1 2.94  57 2.94
                            13 2.94
   3  0.167  0.167  0.000-   2 2.94   4 2.94   7 2.94  15 2.94   5 2.94  19 2.94  10 2.94   8 2.94
                            17 2.94
   4  0.250  0.000  0.000-   3 2.94   2 2.94  15 2.94  71 2.94  57 2.94  60 2.94   5 2.94  59 2.94
                            16 2.94
   5  0.333  0.083  0.000-  10 2.94  17 2.94   3 2.94   6 2.94  18 2.94  16 2.94   4 2.94  97 2.94
                            60 2.94
   6  0.417  0.167  0.000-  98 2.94  97 2.94 103 2.94   5 2.94  18 2.94 110 2.94  10 2.94  11 2.94
                            22 2.94
   7  0.000  0.250  0.000-   2 2.94   3 2.94   8 2.94  19 2.94 102 2.94 107 2.94 108 2.94  14 2.94
                           120 2.94
   8  0.083  0.333  0.000-  49 2.94   7 2.94  20 2.94  19 2.94  10 2.94   9 2.94 108 2.94   3 2.94
                            21 2.94
   9  0.167  0.417  0.000-  50 2.94  61 2.94  52 2.94  49 2.94  23 2.94  21 2.94   8 2.94  11 2.94
                            10 2.94
  10  0.250  0.250  0.000-   5 2.94  22 2.94  17 2.94  21 2.94   3 2.94   6 2.94   8 2.94  11 2.94
                             9 2.94
  11  0.333  0.333  0.000-  52 2.94  12 2.94 103 2.94  24 2.94   9 2.94  10 2.94   6 2.94  23 2.94
                            22 2.94
  12  0.417  0.417  0.000-  52 2.94  53 2.94  11 2.94  64 2.94 145 2.94  24 2.94 104 2.94 103 2.94
                           116 2.94
  13  0.083  0.000  0.120-  81 2.91  26 2.91  25 2.91  14 2.94   1 2.94  57 2.94  68 2.94 114 2.94
                            15 2.94  71 2.94  69 2.94   2 2.94
  14  0.000  0.167  0.120- 131 2.91  25 2.91  27 2.91  13 2.94 114 2.94  15 2.94   2 2.94 102 2.94
                           118 2.94  19 2.94 120 2.94   7 2.94
  15  0.167  0.083  0.120-  26 2.91  27 2.91  28 2.91  19 2.94   3 2.94  14 2.94  17 2.94   2 2.94
                             4 2.94  16 2.94  13 2.94  71 2.94
  16  0.333  0.000  0.120-  84 2.91  29 2.91  28 2.91  17 2.94  18 2.94 164 2.94   5 2.94  60 2.94
                            15 2.94  71 2.94  72 2.94   4 2.94
  17  0.250  0.167  0.120-  30 2.90  32 2.91  28 2.91  18 2.94  16 2.94  22 2.94   5 2.94  15 2.94
                            10 2.94  19 2.94  21 2.94   3 2.94
  18  0.417  0.083  0.120-  30 2.91 121 2.91  29 2.91  17 2.94  22 2.94  16 2.94 110 2.94   6 2.94
                             5 2.94 109 2.94 164 2.94  97 2.94
  19  0.083  0.250  0.120-  31 2.91  32 2.91  27 2.91  15 2.94   7 2.94   3 2.94   8 2.94  17 2.94
                            14 2.94 120 2.94  21 2.94  20 2.94
  20  1.000  0.417  0.120-  33 2.91  31 2.91 173 2.91 162 2.94  49 2.94  61 2.94 160 2.94   8 2.94
                           120 2.94  21 2.94  19 2.94 108 2.94
  21  0.167  0.333  0.120-  34 2.90  32 2.91  33 2.91  61 2.94  22 2.94  23 2.94   9 2.94  10 2.94
                            20 2.94  19 2.94  17 2.94   8 2.94
  22  0.333  0.250  0.120-  35 2.90  30 2.91  34 2.91  18 2.94  21 2.94  17 2.94  10 2.94 110 2.94
                            24 2.94  23 2.94   6 2.94  11 2.94
  23  0.250  0.417  0.120-  36 2.90  74 2.91  34 2.91  61 2.94  63 2.94  21 2.94  64 2.94  52 2.94
                             9 2.94  24 2.94  22 2.94  11 2.94
  24  0.417  0.333  0.120- 127 2.91  36 2.91  35 2.91  64 2.94  11 2.94  12 2.94 103 2.94 115 2.94
                           116 2.94  23 2.94  22 2.94 110 2.94
  25  0.000  0.083  0.238-  14 2.91  13 2.91 114 2.91 131 2.94 126 2.94 125 2.94  26 2.94  27 2.94
                            81 2.94  38 2.95  37 2.95 138 2.95
  26  0.167  0.000  0.238-  15 2.91  13 2.91  71 2.91  82 2.93  27 2.94  25 2.94  28 2.94  81 2.94
                            84 2.94  38 2.95  40 2.95  93 2.95
  27  0.083  0.167  0.238-  15 2.91  14 2.91  19 2.91 131 2.94  26 2.94  28 2.94  25 2.94  32 2.94
                            31 2.94  43 2.94  38 2.95  39 2.95
  28  0.250  0.083  0.238-  15 2.91  17 2.91  16 2.91  30 2.93  84 2.94  27 2.94  26 2.94  29 2.94
                            32 2.94  39 2.95  40 2.95  41 2.95
  29  0.417  0.000  0.238-  18 2.91  16 2.91 164 2.91  30 2.94 121 2.94  84 2.94 175 2.94  28 2.94
                           177 2.94  96 2.94 133 2.95  41 2.95
  30  0.333  0.167  0.238-  17 2.90  18 2.91  22 2.91  35 2.93  28 2.93  32 2.94  29 2.94  34 2.94
                           121 2.94  42 2.95  41 2.95  46 2.95
  31  0.000  0.333  0.238-  19 2.91  20 2.91 120 2.91  33 2.94 132 2.94 131 2.94  32 2.94  27 2.94
                           173 2.94 144 2.94  43 2.95  44 2.95
  32  0.167  0.250  0.238-  19 2.91  17 2.91  21 2.91  34 2.93  30 2.94  31 2.94  27 2.94  28 2.94
                            33 2.94  44 2.94  39 2.95  46 2.95
  33  0.083  0.417  0.238-  20 2.91  61 2.91  21 2.91  74 2.93  34 2.94  31 2.94 173 2.94  73 2.94
                            32 2.94  44 2.94  85 2.94  45 2.95
  34  0.250  0.333  0.238-  21 2.90  23 2.91  22 2.91  32 2.93  36 2.93  33 2.94  35 2.94  74 2.94
                            30 2.94  47 2.95  45 2.95  46 2.95
  35  0.416  0.250  0.238-  22 2.90 139 2.90 110 2.90  24 2.91  30 2.93 121 2.94  34 2.94  36 2.94
                           127 2.95  47 2.95  42 2.96 123 2.96
  36  0.333  0.417  0.238-  23 2.90  24 2.91  64 2.91  48 2.92  34 2.93  74 2.94  35 2.94  76 2.94
                            88 2.95  47 2.95 127 2.95  77 2.95
  37  0.000  0.000  0.358- 137 2.94  38 2.94  93 2.94 138 2.94  92 2.94 192 2.94 125 2.95  25 2.95
                            81 2.95
  38  0.083  0.083  0.358-  93 2.94  37 2.94  43 2.94 138 2.94  40 2.94  39 2.94  25 2.95  27 2.95
                            26 2.95
  39  0.167  0.167  0.358-  41 2.94  40 2.94  43 2.94  46 2.94  44 2.94  38 2.94  28 2.95  32 2.95
                            27 2.95
  40  0.250  0.000  0.358-  95 2.94  41 2.94  93 2.94  39 2.94  38 2.94  96 2.94  28 2.95  84 2.95
                            26 2.95
  41  0.333  0.083  0.359-  42 2.93  40 2.94  39 2.94  96 2.94  46 2.94 133 2.94  28 2.95  29 2.95
                            30 2.95
  42  0.416  0.166  0.359-  41 2.93 133 2.93 139 2.93  46 2.94  30 2.95  47 2.95 121 2.95 134 2.95
                            35 2.96
  43  0.000  0.250  0.358-  38 2.94 143 2.94  39 2.94 138 2.94 144 2.94  44 2.94  27 2.94 131 2.94
                            31 2.95
  44  0.083  0.333  0.358- 144 2.94  46 2.94  39 2.94  45 2.94  43 2.94  85 2.94  33 2.94  32 2.94
                            31 2.95
  45  0.167  0.417  0.359-  47 2.94  88 2.94  85 2.94  44 2.94  46 2.94  86 2.94  34 2.95  74 2.95
                            33 2.95
  46  0.250  0.250  0.359-  42 2.94  47 2.94  44 2.94  39 2.94  41 2.94  45 2.94  34 2.95  32 2.95
                            30 2.95
  47  0.333  0.333  0.358-  46 2.94  45 2.94  36 2.95  34 2.95  48 2.95  42 2.95  35 2.95  88 2.95
                           139 2.95
  48  0.416  0.417  0.356-  77 2.92  36 2.92 127 2.92 140 2.94  88 2.95  47 2.95 181 2.95  89 2.95
                           139 2.99
  49  1.000  0.500  0.000-   8 2.94  20 2.94   9 2.94 108 2.94  50 2.94 149 2.94 150 2.94 162 2.94
                            61 2.94
  50  0.083  0.583  0.000-   9 2.94  63 2.94  61 2.94  62 2.94  51 2.94  52 2.94  49 2.94 150 2.94
                            55 2.94
  51  0.167  0.667  0.000-  56 2.94  53 2.94  58 2.94  65 2.94  50 2.94  55 2.94  52 2.94  63 2.94
                            67 2.94
  52  0.250  0.500  0.000-  12 2.94  11 2.94  53 2.94   9 2.94  23 2.94  64 2.94  50 2.94  51 2.94
                            63 2.94
  53  0.333  0.583  0.000-  12 2.94  52 2.94  51 2.94  64 2.94  65 2.94  54 2.94 145 2.94  58 2.94
                            66 2.94
  54  0.417  0.667  0.000-  59 2.94 158 2.94  66 2.94  70 2.94  53 2.94 146 2.94 151 2.94  58 2.94
                           145 2.94
  55  1.000  0.750  0.000- 156 2.94 155 2.94  56 2.94 168 2.94  67 2.94  62 2.94 150 2.94  51 2.94
                            50 2.94
  56  0.083  0.833  0.000-  58 2.94  51 2.94  57 2.94  55 2.94  67 2.94  69 2.94 156 2.94   1 2.94
                            68 2.94
  57  0.167  0.917  0.000-  58 2.94  56 2.94   1 2.94  69 2.94  13 2.94   4 2.94  59 2.94   2 2.94
                            71 2.94
  58  0.250  0.750  0.000-  56 2.94  57 2.94  51 2.94  69 2.94  59 2.94  65 2.94  54 2.94  53 2.94
                            70 2.94
  59  0.333  0.833  0.000-  54 2.94  70 2.94 151 2.94  58 2.94  72 2.94  71 2.94  60 2.94  57 2.94
                             4 2.94
  60  0.417  0.917  0.000- 151 2.94 164 2.94  16 2.94  59 2.94   4 2.94 152 2.94  97 2.94   5 2.94
                            72 2.94
  61  0.083  0.500  0.120-  74 2.90  33 2.91  73 2.91  23 2.94  21 2.94  63 2.94   9 2.94  20 2.94
                            50 2.94  62 2.94  49 2.94 162 2.94
  62  0.000  0.667  0.120-  75 2.91 179 2.91  73 2.91 168 2.94  63 2.94  67 2.94  50 2.94  55 2.94
                            61 2.94 150 2.94 162 2.94 166 2.94
  63  0.167  0.583  0.120-  76 2.90  74 2.91  75 2.91  23 2.94  61 2.94  62 2.94  50 2.94  65 2.94
                            64 2.94  67 2.94  51 2.94  52 2.94
  64  0.333  0.500  0.120-  77 2.90  76 2.90  36 2.91  24 2.94  12 2.94  23 2.94 116 2.94  52 2.94
                            53 2.94  66 2.94  63 2.94  65 2.94
  65  0.250  0.667  0.120-  76 2.90  78 2.90  80 2.91  69 2.94  51 2.94  53 2.94  58 2.94  66 2.94
                            67 2.94  63 2.94  70 2.94  64 2.94
  66  0.417  0.583  0.120-  77 2.89 169 2.90  78 2.90 116 2.94 158 2.94 157 2.94 145 2.94  54 2.94
                            65 2.94  64 2.94  70 2.94  53 2.94
  67  0.083  0.750  0.120-  75 2.91  79 2.91  80 2.91  68 2.94  62 2.94  69 2.94 168 2.94  56 2.94
                            55 2.94  65 2.94  63 2.94  51 2.94
  68  1.000  0.917  0.120- 125 2.91  79 2.91  81 2.91  67 2.94 156 2.94  13 2.94  69 2.94 112 2.94
                           168 2.94 114 2.94   1 2.94  56 2.94
  69  0.167  0.833  0.120-  80 2.91  82 2.91  81 2.91  65 2.94  58 2.94  70 2.94  67 2.94  56 2.94
                            57 2.94  71 2.94  68 2.94  13 2.94
  70  0.333  0.750  0.120-  78 2.89  82 2.91  83 2.91  72 2.94  71 2.94 158 2.94  59 2.94  69 2.94
                            54 2.94  65 2.94  66 2.94  58 2.94
  71  0.250  0.917  0.120-  82 2.90  26 2.91  84 2.91  70 2.94  72 2.94   4 2.94  59 2.94  69 2.94
                            16 2.94  13 2.94  15 2.94  57 2.94
  72  0.417  0.833  0.120-  83 2.90  84 2.91 175 2.91  70 2.94 158 2.94  71 2.94 163 2.94 151 2.94
                            59 2.94 164 2.94  16 2.94  60 2.94
  73  1.000  0.583  0.238-  62 2.91 162 2.91  61 2.91  74 2.93  75 2.94 179 2.94 174 2.94 173 2.94
                            33 2.94 186 2.95  85 2.95  86 2.95
  74  0.166  0.500  0.238-  61 2.90  23 2.91  63 2.91  73 2.93  33 2.93  36 2.94  34 2.94  88 2.94
                            75 2.94  76 2.94  45 2.95  86 2.95
  75  0.083  0.667  0.238-  62 2.91  67 2.91  63 2.91  76 2.93 179 2.94  73 2.94  79 2.94  74 2.94
                            80 2.94  91 2.95  87 2.95  86 2.95
  76  0.250  0.584  0.238-  63 2.90  65 2.90  64 2.90  89 2.92  75 2.93  80 2.94  77 2.94  88 2.94
                            74 2.94  36 2.94  87 2.95  78 2.95
  77  0.416  0.500  0.237-  66 2.89  64 2.90 116 2.90  48 2.92  89 2.93 181 2.93  76 2.94 129 2.94
                            78 2.95 169 2.95  36 2.95 127 2.95
  78  0.333  0.667  0.238-  70 2.89  65 2.90  66 2.90  89 2.92  82 2.93  83 2.93  80 2.94 169 2.94
                            77 2.95  90 2.95  76 2.95  94 2.95
  79  0.000  0.833  0.238-  67 2.91  68 2.91 168 2.91  80 2.94  75 2.94 180 2.94  81 2.94 125 2.94
                           179 2.94  92 2.94  91 2.94 192 2.95
  80  0.167  0.750  0.238-  69 2.91  67 2.91  65 2.91  76 2.94  79 2.94  81 2.94  78 2.94  82 2.94
                            75 2.94  87 2.95  92 2.95  94 2.95
  81  0.083  0.917  0.238-  13 2.91  69 2.91  68 2.91  82 2.94 125 2.94  80 2.94  26 2.94  79 2.94
                            25 2.94  92 2.94  37 2.95  93 2.95
  82  0.250  0.834  0.238-  71 2.90  69 2.91  70 2.91  78 2.93  26 2.93  81 2.94  84 2.94  80 2.94
                            83 2.94  94 2.94  93 2.95  95 2.95
  83  0.417  0.750  0.238-  72 2.90 158 2.91  70 2.91  78 2.93 175 2.93  84 2.93 169 2.93 171 2.94
                            82 2.94  90 2.95 187 2.95  95 2.95
  84  0.333  0.917  0.238-  16 2.91  71 2.91  72 2.91  83 2.93  28 2.94  29 2.94  82 2.94 175 2.94
                            26 2.94  96 2.94  40 2.95  95 2.95
  85  0.000  0.500  0.358-  86 2.94 185 2.94 186 2.94  45 2.94 144 2.94  44 2.94  33 2.94  73 2.95
                           173 2.95
  86  0.083  0.583  0.359-  88 2.93 186 2.94  85 2.94  91 2.94  87 2.94  45 2.94  73 2.95  75 2.95
                            74 2.95
  87  0.166  0.667  0.358-  89 2.93  88 2.93  91 2.93  92 2.94  86 2.94  94 2.94  80 2.95  75 2.95
                            76 2.95
  88  0.249  0.501  0.358-  86 2.93  87 2.93  45 2.94  74 2.94  76 2.94  36 2.95  48 2.95  89 2.95
                            47 2.95
  89  0.333  0.585  0.356-  78 2.92  76 2.92  94 2.93  77 2.93  87 2.93  90 2.94 181 2.95  48 2.95
                            88 2.95
  90  0.417  0.667  0.358- 181 2.93  95 2.93 187 2.93  89 2.94 182 2.94  94 2.94  83 2.95  78 2.95
                           169 2.95
  91  1.000  0.750  0.358-  87 2.93 191 2.94 186 2.94  86 2.94 192 2.94  92 2.94 179 2.94  79 2.94
                            75 2.95
  92  0.083  0.833  0.358-  87 2.94  94 2.94  37 2.94 192 2.94  93 2.94  91 2.94  81 2.94  79 2.94
                            80 2.95
  93  0.167  0.917  0.359-  94 2.93  38 2.94  37 2.94  40 2.94  95 2.94  92 2.94  82 2.95  26 2.95
                            81 2.95
  94  0.250  0.751  0.358-  89 2.93  93 2.93  95 2.93  92 2.94  90 2.94  87 2.94  82 2.94  80 2.95
                            78 2.95
  95  0.333  0.833  0.358-  90 2.93  94 2.93  40 2.94  96 2.94  93 2.94 187 2.94  84 2.95  83 2.95
                            82 2.95
  96  0.417  0.917  0.358- 133 2.94  41 2.94  95 2.94 187 2.94  40 2.94 188 2.94  84 2.94 175 2.94
                            29 2.94
  97  0.500  0.000  0.000-   6 2.94  98 2.94 153 2.94 109 2.94  60 2.94   5 2.94 152 2.94 164 2.94
                            18 2.94
  98  0.583  0.083  0.000-   6 2.94 103 2.94  97 2.94 110 2.94  99 2.94 109 2.94 100 2.94 153 2.94
                           111 2.94
  99  0.667  0.167  0.000- 100 2.94 111 2.94 101 2.94  98 2.94 113 2.94 115 2.94 106 2.94 103 2.94
                           104 2.94
 100  0.750  0.000  0.000-  99 2.94 112 2.94 111 2.94 153 2.94 101 2.94  98 2.94 156 2.94 155 2.94
                           167 2.94
 101  0.833  0.083  0.000- 106 2.94 102 2.94  99 2.94 113 2.94 114 2.94   1 2.94 100 2.94 156 2.94
                           112 2.94
 102  0.917  0.167  0.000-   1 2.94   2 2.94 101 2.94 114 2.94  14 2.94 106 2.94   7 2.94 107 2.94
                           118 2.94
 103  0.500  0.250  0.000-  98 2.94  11 2.94   6 2.94 110 2.94  24 2.94  99 2.94 104 2.94  12 2.94
                           115 2.94
 104  0.583  0.333  0.000- 145 2.94 117 2.94 116 2.94 115 2.94 105 2.94 106 2.94  12 2.94 103 2.94
                            99 2.94
 105  0.667  0.417  0.000- 146 2.94 145 2.94 148 2.94 157 2.94 119 2.94 107 2.94 104 2.94 106 2.94
                           117 2.94
 106  0.750  0.250  0.000- 101 2.94 118 2.94 102 2.94 104 2.94  99 2.94 107 2.94 105 2.94 113 2.94
                           117 2.94
 107  0.833  0.333  0.000- 148 2.94 108 2.94 120 2.94 105 2.94   7 2.94 106 2.94 102 2.94 119 2.94
                           118 2.94
 108  0.917  0.417  0.000- 148 2.94 149 2.94 107 2.94 160 2.94  49 2.94 120 2.94   8 2.94   7 2.94
                            20 2.94
 109  0.583  0.000  0.120- 121 2.91 122 2.91 177 2.91 110 2.94 167 2.94  97 2.94  98 2.94 153 2.94
                            18 2.94 164 2.94 111 2.94 165 2.94
 110  0.500  0.167  0.120- 123 2.90  35 2.90 121 2.91 109 2.94  98 2.94  18 2.94 111 2.94   6 2.94
                           103 2.94  22 2.94 115 2.94  24 2.94
 111  0.667  0.083  0.120- 123 2.88 122 2.91 124 2.91 113 2.94 115 2.94 112 2.94  99 2.94 110 2.94
                           100 2.94 109 2.94 167 2.94  98 2.94
 112  0.833  0.000  0.120- 124 2.90 180 2.91 125 2.91 113 2.94 111 2.94 100 2.94 114 2.94 167 2.94
                            68 2.94 168 2.94 101 2.94 156 2.94
 113  0.750  0.167  0.120- 128 2.91 126 2.91 124 2.91 111 2.94 112 2.94 115 2.94 114 2.94 101 2.94
                            99 2.94 118 2.94 117 2.94 106 2.94
 114  0.917  0.083  0.120- 126 2.91 125 2.91  25 2.91 118 2.94  14 2.94 113 2.94 102 2.94 101 2.94
                            13 2.94 112 2.94  68 2.94   1 2.94
 115  0.583  0.250  0.120- 123 2.90 127 2.90 128 2.91 111 2.94 113 2.94 117 2.94  99 2.94 104 2.94
                            24 2.94 110 2.94 116 2.94 103 2.94
 116  0.500  0.417  0.120-  77 2.90 129 2.90 127 2.91 157 2.94  66 2.94 117 2.94 145 2.94  64 2.94
                           104 2.94  24 2.94 115 2.94  12 2.94
 117  0.667  0.333  0.120- 129 2.91 130 2.91 128 2.91 157 2.94 116 2.94 115 2.94 104 2.94 118 2.94
                           119 2.94 113 2.94 105 2.94 106 2.94
 118  0.833  0.250  0.120- 130 2.90 126 2.91 131 2.91 114 2.94 106 2.94 117 2.94 113 2.94  14 2.94
                           120 2.94 119 2.94 102 2.94 107 2.94
 119  0.750  0.417  0.120- 132 2.91 170 2.91 130 2.91 159 2.94 160 2.94 157 2.94 148 2.94 105 2.94
                           117 2.94 120 2.94 118 2.94 107 2.94
 120  0.917  0.333  0.120- 132 2.90 131 2.91  31 2.91 160 2.94 107 2.94 108 2.94  20 2.94  19 2.94
                           119 2.94 118 2.94  14 2.94   7 2.94
 121  0.500  0.083  0.238- 109 2.91  18 2.91 110 2.91  35 2.94 177 2.94  29 2.94 123 2.94 122 2.94
                            30 2.94 134 2.95  42 2.95 133 2.95
 122  0.667  1.000  0.238- 167 2.90 109 2.91 111 2.91 123 2.93 178 2.93 180 2.94 177 2.94 134 2.94
                           124 2.94 121 2.94 136 2.95 189 2.95
 123  0.584  0.166  0.237- 111 2.88 139 2.90 110 2.90 115 2.90 122 2.93 124 2.93 121 2.94 128 2.94
                           127 2.95 135 2.96  35 2.96 134 2.96
 124  0.750  0.083  0.238- 112 2.90 113 2.91 111 2.91 123 2.93 125 2.93 180 2.93 126 2.94 122 2.94
                           128 2.94 137 2.95 135 2.95 136 2.95
 125  0.917  1.000  0.238-  68 2.91 114 2.91 112 2.91 124 2.93  81 2.94 126 2.94  25 2.94  79 2.94
                           180 2.94  37 2.95 192 2.95 137 2.95
 126  0.833  0.167  0.238- 114 2.91 118 2.91 113 2.91 130 2.94 124 2.94  25 2.94 125 2.94 128 2.94
                           131 2.94 138 2.95 142 2.95 137 2.95
 127  0.500  0.333  0.238- 115 2.90  24 2.91 116 2.91 139 2.91  48 2.92 128 2.94 129 2.94 140 2.94
                            35 2.95  36 2.95 123 2.95  77 2.95
 128  0.667  0.250  0.238- 113 2.91 115 2.91 117 2.91 127 2.94 130 2.94 126 2.94 129 2.94 123 2.94
                           124 2.94 140 2.94 142 2.95 135 2.95
 129  0.583  0.417  0.238- 116 2.90 117 2.91 157 2.91 181 2.93 141 2.93 128 2.94 127 2.94 170 2.94
                            77 2.94 130 2.94 140 2.95 169 2.95
 130  0.750  0.333  0.238- 118 2.90 117 2.91 119 2.91 141 2.93 126 2.94 131 2.94 128 2.94 132 2.94
                           129 2.94 170 2.94 143 2.95 142 2.95
 131  0.917  0.250  0.238-  14 2.91 120 2.91 118 2.91  25 2.94  27 2.94 130 2.94  31 2.94 126 2.94
                           132 2.94 143 2.94  43 2.94 138 2.95
 132  0.833  0.417  0.238- 120 2.90 160 2.91 119 2.91  31 2.94 173 2.94 184 2.94 170 2.94 131 2.94
                           130 2.94 172 2.94 143 2.95 144 2.95
 133  0.500  1.000  0.359- 134 2.93  42 2.93  96 2.94 188 2.94 189 2.94  41 2.94 177 2.95  29 2.95
                           121 2.95
 134  0.584  0.082  0.359- 189 2.92 139 2.93 133 2.93 136 2.93 122 2.94 121 2.95  42 2.95 135 2.95
                           123 2.96
 135  0.667  0.166  0.358- 137 2.93 136 2.93 139 2.93 142 2.93 140 2.94 128 2.95 124 2.95 134 2.95
                           123 2.96
 136  0.750  1.000  0.359- 134 2.93 135 2.93 192 2.94 191 2.94 137 2.94 189 2.94 180 2.95 124 2.95
                           122 2.95
 137  0.833  0.083  0.359- 135 2.93  37 2.94 142 2.94 192 2.94 138 2.94 136 2.94 124 2.95 125 2.95
                           126 2.95
 138  0.917  0.167  0.358- 142 2.94 137 2.94  37 2.94  38 2.94 143 2.94  43 2.94 126 2.95  25 2.95
                           131 2.95
 139  0.501  0.248  0.355- 123 2.90  35 2.90 127 2.91 134 2.93  42 2.93 135 2.93  47 2.95 140 2.96
                            48 2.99
 140  0.583  0.333  0.358- 142 2.94 141 2.94 128 2.94 135 2.94  48 2.94 127 2.94 129 2.95 181 2.96
                           139 2.96
 141  0.667  0.416  0.357- 130 2.93 129 2.93 170 2.93 143 2.93 142 2.94 140 2.94 181 2.95 184 2.95
                           182 2.95
 142  0.750  0.250  0.358- 135 2.93 141 2.94 137 2.94 138 2.94 140 2.94 143 2.94 128 2.95 126 2.95
                           130 2.95
 143  0.833  0.333  0.358- 141 2.93  43 2.94 144 2.94 138 2.94 184 2.94 142 2.94 131 2.94 132 2.95
                           130 2.95
 144  0.917  0.417  0.358- 184 2.93  44 2.94 143 2.94  85 2.94  43 2.94 185 2.94  31 2.94 173 2.95
                           132 2.95
 145  0.500  0.500  0.000- 104 2.94 116 2.94 105 2.94  12 2.94 157 2.94  66 2.94 146 2.94  53 2.94
                            54 2.94
 146  0.583  0.583  0.000- 105 2.94 159 2.94 147 2.94  54 2.94 148 2.94 145 2.94 151 2.94 158 2.94
                           157 2.94
 147  0.667  0.667  0.000- 152 2.94 149 2.94 154 2.94 161 2.94 146 2.94 151 2.94 148 2.94 159 2.94
                           163 2.94
 148  0.750  0.500  0.000- 108 2.94 107 2.94 149 2.94 105 2.94 119 2.94 160 2.94 146 2.94 147 2.94
                           159 2.94
 149  0.833  0.583  0.000- 108 2.94 148 2.94 147 2.94 162 2.94 161 2.94 160 2.94 150 2.94  49 2.94
                           154 2.94
 150  0.917  0.667  0.000- 155 2.94  55 2.94 149 2.94 154 2.94  50 2.94  49 2.94 162 2.94 166 2.94
                            62 2.94
 151  0.500  0.750  0.000-  60 2.94  59 2.94 152 2.94  72 2.94 163 2.94  54 2.94 147 2.94 146 2.94
                           158 2.94
 152  0.583  0.833  0.000- 154 2.94 147 2.94 153 2.94 151 2.94 163 2.94 165 2.94  60 2.94  97 2.94
                           164 2.94
 153  0.667  0.917  0.000- 154 2.94 152 2.94  97 2.94 167 2.94 165 2.94 109 2.94 100 2.94 155 2.94
                            98 2.94
 154  0.750  0.750  0.000- 152 2.94 153 2.94 147 2.94 165 2.94 155 2.94 166 2.94 161 2.94 150 2.94
                           149 2.94
 155  0.833  0.833  0.000- 150 2.94  55 2.94 154 2.94 166 2.94 168 2.94 156 2.94 153 2.94 100 2.94
                           167 2.94
 156  0.917  0.917  0.000-  55 2.94  68 2.94 155 2.94   1 2.94 100 2.94  56 2.94 101 2.94 168 2.94
                           112 2.94
 157  0.583  0.500  0.120- 169 2.90 170 2.91 129 2.91 116 2.94 117 2.94  66 2.94 119 2.94 105 2.94
                           145 2.94 159 2.94 158 2.94 146 2.94
 158  0.500  0.667  0.120- 169 2.89 171 2.91  83 2.91  72 2.94  66 2.94  70 2.94  54 2.94 159 2.94
                           163 2.94 157 2.94 146 2.94 151 2.94
 159  0.667  0.583  0.120- 170 2.90 171 2.91 172 2.91 119 2.94 146 2.94 161 2.94 157 2.94 158 2.94
                           160 2.94 163 2.94 147 2.94 148 2.94
 160  0.833  0.500  0.120- 132 2.91 172 2.91 173 2.91 120 2.94 162 2.94 108 2.94 119 2.94  20 2.94
                           148 2.94 149 2.94 159 2.94 161 2.94
 161  0.750  0.667  0.120- 172 2.90 174 2.91 176 2.91 165 2.94 162 2.94 166 2.94 147 2.94 149 2.94
                           154 2.94 163 2.94 159 2.94 160 2.94
 162  0.917  0.583  0.120- 174 2.91 173 2.91  73 2.91  20 2.94 160 2.94 161 2.94 149 2.94 166 2.94
                           150 2.94  49 2.94  62 2.94  61 2.94
 163  0.583  0.750  0.120- 171 2.90 176 2.91 175 2.91 164 2.94 165 2.94  72 2.94 152 2.94 151 2.94
                           161 2.94 158 2.94 159 2.94 147 2.94
 164  0.500  0.917  0.120- 175 2.91 177 2.91  29 2.91 163 2.94  16 2.94  60 2.94 109 2.94  72 2.94
                           165 2.94  18 2.94  97 2.94 152 2.94
 165  0.667  0.833  0.120- 178 2.91 177 2.91 176 2.91 166 2.94 161 2.94 167 2.94 154 2.94 163 2.94
                           152 2.94 153 2.94 164 2.94 109 2.94
 166  0.833  0.750  0.120- 174 2.91 178 2.91 179 2.91 165 2.94 167 2.94 161 2.94 168 2.94 155 2.94
                           154 2.94 162 2.94 150 2.94  62 2.94
 167  0.750  0.917  0.120- 122 2.90 180 2.91 178 2.91 166 2.94 165 2.94 109 2.94 153 2.94 112 2.94
                           168 2.94 111 2.94 100 2.94 155 2.94
 168  0.917  0.833  0.120- 180 2.91 179 2.91  79 2.91  62 2.94  67 2.94 166 2.94  55 2.94 155 2.94
                            68 2.94 167 2.94 112 2.94 156 2.94
 169  0.500  0.584  0.238- 158 2.89 157 2.90  66 2.90 181 2.92 171 2.93  83 2.93 170 2.94  78 2.94
                            77 2.95 129 2.95 182 2.95  90 2.95
 170  0.667  0.500  0.238- 159 2.90 119 2.91 157 2.91 141 2.93 169 2.94 171 2.94 132 2.94 172 2.94
                           129 2.94 184 2.94 130 2.94 182 2.95
 171  0.583  0.667  0.238- 163 2.90 159 2.91 158 2.91 169 2.93 176 2.94 172 2.94 175 2.94 170 2.94
                            83 2.94 182 2.94 187 2.95 183 2.95
 172  0.750  0.584  0.238- 161 2.90 160 2.91 159 2.91 174 2.94 176 2.94 171 2.94 173 2.94 184 2.94
                           170 2.94 132 2.94 185 2.95 183 2.95
 173  0.917  0.500  0.238- 162 2.91 160 2.91  20 2.91  33 2.94 174 2.94 172 2.94 132 2.94  73 2.94
                            31 2.94 144 2.95 185 2.95  85 2.95
 174  0.833  0.667  0.238- 162 2.91 166 2.91 161 2.91 172 2.94 178 2.94 173 2.94  73 2.94 179 2.94
                           176 2.94 185 2.94 190 2.95 186 2.95
 175  0.500  0.833  0.238- 164 2.91 163 2.91  72 2.91  83 2.93 177 2.94 171 2.94  29 2.94 176 2.94
                            84 2.94  96 2.94 188 2.95 187 2.95
 176  0.667  0.750  0.238- 165 2.91 163 2.91 161 2.91 171 2.94 172 2.94 178 2.94 177 2.94 175 2.94
                           174 2.94 188 2.95 190 2.95 183 2.95
 177  0.583  0.917  0.238- 165 2.91 164 2.91 109 2.91 121 2.94 175 2.94 122 2.94 176 2.94 178 2.94
                            29 2.94 133 2.95 188 2.95 189 2.95
 178  0.750  0.833  0.238- 165 2.91 166 2.91 167 2.91 122 2.93 176 2.94 174 2.94 177 2.94 179 2.94
                           180 2.94 189 2.94 191 2.95 190 2.95
 179  0.917  0.750  0.238-  62 2.91 168 2.91 166 2.91  75 2.94 180 2.94  73 2.94 174 2.94  79 2.94
                           178 2.94  91 2.94 191 2.95 186 2.95
 180  0.833  0.917  0.238- 168 2.91 167 2.91 112 2.91 124 2.93 122 2.94 179 2.94  79 2.94 178 2.94
                           125 2.94 192 2.94 191 2.95 136 2.95
 181  0.500  0.501  0.357- 169 2.92 129 2.93 182 2.93  90 2.93  77 2.93 141 2.95  89 2.95  48 2.95
                           140 2.96
 182  0.583  0.584  0.358- 181 2.93 183 2.93 187 2.94  90 2.94 184 2.94 171 2.94 170 2.95 141 2.95
                           169 2.95
 183  0.667  0.667  0.359- 182 2.93 184 2.94 188 2.94 190 2.94 187 2.94 185 2.94 171 2.95 176 2.95
                           172 2.95
 184  0.750  0.500  0.358- 185 2.93 144 2.93 183 2.94 172 2.94 132 2.94 143 2.94 182 2.94 170 2.94
                           141 2.95
 185  0.833  0.583  0.358- 184 2.93 190 2.94 186 2.94  85 2.94 183 2.94 144 2.94 174 2.94 173 2.95
                           172 2.95
 186  0.917  0.667  0.358- 185 2.94  86 2.94  91 2.94  85 2.94 191 2.94 190 2.94  73 2.95 179 2.95
                           174 2.95
 187  0.500  0.750  0.359-  90 2.93 182 2.94 188 2.94  96 2.94 183 2.94  95 2.94  83 2.95 175 2.95
                           171 2.95
 188  0.583  0.833  0.358- 187 2.94 189 2.94 133 2.94 183 2.94 190 2.94  96 2.94 176 2.95 175 2.95
                           177 2.95
 189  0.667  0.916  0.359- 134 2.92 190 2.93 191 2.94 188 2.94 133 2.94 136 2.94 178 2.94 177 2.95
                           122 2.95
 190  0.750  0.750  0.358- 189 2.93 185 2.94 183 2.94 186 2.94 188 2.94 191 2.94 178 2.95 176 2.95
                           174 2.95
 191  0.833  0.833  0.358- 189 2.94  91 2.94 136 2.94 186 2.94 190 2.94 192 2.94 180 2.95 179 2.95
                           178 2.95
 192  0.917  0.917  0.358- 136 2.94 137 2.94  92 2.94  91 2.94 191 2.94  37 2.94 180 2.94 125 2.95
                            79 2.95
 193  0.635  0.383  0.521- 202 1.22
 194  0.593  0.510  0.530- 202 1.37 203 1.44
 195  0.346  0.556  0.531- 213 1.10 212 1.10 214 1.11 196 1.50
 196  0.390  0.472  0.523- 197 1.40 201 1.42 195 1.50
 197  0.352  0.430  0.520- 206 1.09 198 1.40 196 1.40
 198  0.391  0.351  0.515- 207 1.09 197 1.40 199 1.41
 199  0.471  0.311  0.514- 205 1.38 200 1.41 198 1.41
 200  0.510  0.351  0.516- 208 1.09 201 1.40 199 1.41
 201  0.470  0.431  0.521- 204 1.40 200 1.40 196 1.42
 202  0.583  0.449  0.525- 193 1.22 194 1.37 204 1.38
 203  0.670  0.493  0.533- 215 1.10 216 1.10 217 1.10 194 1.44
 204  0.507  0.474  0.524- 209 1.02 202 1.38 201 1.40
 205  0.511  0.233  0.511- 210 1.02 211 1.02 199 1.38
 206  0.290  0.460  0.521- 197 1.09
 207  0.360  0.320  0.513- 198 1.09
 208  0.572  0.322  0.515- 200 1.09
 209  0.473  0.531  0.526- 204 1.02
 210  0.483  0.205  0.497- 205 1.02
 211  0.567  0.206  0.498- 205 1.02
 212  0.359  0.575  0.578- 195 1.10
 213  0.285  0.577  0.530- 195 1.10
 214  0.358  0.585  0.489- 195 1.11
 215  0.668  0.548  0.527- 203 1.10
 216  0.696  0.466  0.581- 203 1.10
 217  0.704  0.454  0.492- 203 1.10
 
  LATTYP: Found a hexagonal cell.
 ALAT       =    20.3604714350
 C/A-ratio  =     0.9822955261
  
  Lattice vectors:
  
 A1 = (  10.1802357175, -17.6326854957,   0.0000000000)
 A2 = ( -20.3604714350,   0.0000000000,   0.0000000000)
 A3 = (   0.0000000000,   0.0000000000, -20.0000000000)


Analysis of symmetry for initial positions (statically):
=====================================================================
 Subroutine PRICEL returns:
 Original cell was already a primitive cell.
 

 Routine SETGRP: Setting up the symmetry group for a 
 hexagonal supercell.


 Subroutine GETGRP returns: Found  1 space group operations
 (whereof  1 operations were pure point group operations)
 out of a pool of 24 trial point group operations.


The static configuration has the point symmetry C_1 .


Analysis of symmetry for dynamics (positions and initial velocities):
=====================================================================
 Subroutine PRICEL returns:
 Original cell was already a primitive cell.
 

 Routine SETGRP: Setting up the symmetry group for a 
 hexagonal supercell.


 Subroutine GETGRP returns: Found  1 space group operations
 (whereof  1 operations were pure point group operations)
 out of a pool of 24 trial point group operations.


The dynamic configuration has the point symmetry C_1 .


Analysis of constrained symmetry for selective dynamics:
=====================================================================
 Subroutine PRICEL returns:
 Original cell was already a primitive cell.
 

 Routine SETGRP: Setting up the symmetry group for a 
 hexagonal supercell.


 Subroutine GETGRP returns: Found  1 space group operations
 (whereof  1 operations were pure point group operations)
 out of a pool of 24 trial point group operations.


The constrained configuration has the point symmetry C_1 .


 Subroutine INISYM returns: Found  1 space group operations
 (whereof  1 operations are pure point group operations),
 and found     1 'primitive' translations

 
 
 KPOINTS: K-POINTS                                

Automatic generation of k-mesh.
Space group operators:
 irot       det(A)        alpha          n_x          n_y          n_z        tau_x        tau_y        tau_z
    1     1.000000     0.000000     1.000000     0.000000     0.000000     0.000000     0.000000     0.000000
 
 Subroutine IBZKPT returns following result:
 ===========================================
 
 Found      5 irreducible k-points:
 
 Following reciprocal coordinates:
            Coordinates               Weight
  0.000000  0.000000  0.000000      1.000000
  0.333333  0.000000  0.000000      2.000000
  0.000000  0.333333  0.000000      2.000000
  0.333333  0.333333  0.000000      2.000000
 -0.333333  0.333333  0.000000      2.000000
 
 Following cartesian coordinates:
            Coordinates               Weight
  0.000000  0.000000  0.000000      1.000000
  0.016372 -0.009452  0.000000      2.000000
  0.000000  0.018904  0.000000      2.000000
  0.016372  0.009452  0.000000      2.000000
 -0.016372  0.028356  0.000000      2.000000
 


--------------------------------------------------------------------------------------------------------




 Dimension of arrays:
   k-points           NKPTS =      5   k-points in BZ     NKDIM =      5   number of bands    NBANDS=   1320
   number of dos      NEDOS =    301   number of ions     NIONS =    217
   non local maximal  LDIM  =      6   non local SUM 2l+1 LMDIM =     18
   total plane-waves  NPLWV = ******
   max r-space proj   IRMAX =   2164   max aug-charges    IRDMAX=  10927
   dimension x,y,z NGX =   108 NGY =  108 NGZ =  108
   dimension x,y,z NGXF=   216 NGYF=  216 NGZF=  216
   support grid    NGXF=   216 NGYF=  216 NGZF=  216
   ions per type =             192   2   9   2  12
   NGX,Y,Z   is equivalent  to a cutoff of   8.82,  8.82,  8.98 a.u.
   NGXF,Y,Z  is equivalent  to a cutoff of  17.64, 17.64, 17.95 a.u.

 SYSTEM =  x                                       
 POSCAR =  Au  O  C  N  H                          

 Startparameter for this run:
   NWRITE =      0    write-flag & timer
   PREC   = normal    normal or accurate (medium, high low for compatibility)
   ISTART =      0    job   : 0-new  1-cont  2-samecut
   ICHARG =      2    charge: 1-file 2-atom 10-const
   ISPIN  =      1    spin polarized calculation?
   LNONCOLLINEAR =      F non collinear calculations
   LSORBIT =      F    spin-orbit coupling
   INIWAV =      1    electr: 0-lowe 1-rand  2-diag
   LASPH  =      F    aspherical Exc in radial PAW
   METAGGA=      F    non-selfconsistent MetaGGA calc.

 Electronic Relaxation 1
   ENCUT  =  450.0 eV  33.07 Ry    5.75 a.u.  35.22 35.22 34.59*2*pi/ulx,y,z
   ENINI  =  450.0     initial cutoff
   ENAUG  =  644.9 eV  augmentation charge cutoff
   NELM   =     50;   NELMIN=  5; NELMDL= -7     # of ELM steps 
   EDIFF  = 0.1E-04   stopping-criterion for ELM
   LREAL  =      T    real-space projection
   NLSPLINE    = F    spline interpolate recip. space projectors
   LCOMPAT=      F    compatible to vasp.4.4
   GGA_COMPAT  = T    GGA compatible to vasp.4.4-vasp.4.6
   LMAXPAW     = -100 max onsite density
   LMAXMIX     =    2 max onsite mixed and CHGCAR
   VOSKOWN=      0    Vosko Wilk Nusair interpolation
   ROPT   =   -0.00050  -0.00050  -0.00050  -0.00050
   ROPT   =   -0.00050
 Ionic relaxation
   EDIFFG = -.2E-01   stopping-criterion for IOM
   NSW    =    300    number of steps for IOM
   NBLOCK =      1;   KBLOCK =    300    inner block; outer block 
   IBRION =      2    ionic relax: 0-MD 1-quasi-New 2-CG
   NFREE  =      2    steps in history (QN), initial steepest desc. (CG)
   ISIF   =      2    stress and relaxation
   IWAVPR =     11    prediction:  0-non 1-charg 2-wave 3-comb
   ISYM   =      2    0-nonsym 1-usesym 2-fastsym
   LCORR  =      T    Harris-Foulkes like correction to forces

   POTIM  = 0.1500    time-step for ionic-motion
   TEIN   =    0.0    initial temperature
   TEBEG  =    0.0;   TEEND  =   0.0 temperature during run
   SMASS  =  -3.00    Nose mass-parameter (am)
   estimated Nose-frequenzy (Omega)   =  0.10E-29 period in steps =****** mass=  -0.947E-26a.u.
   SCALEE = 1.0000    scale energy and forces
   NPACO  =    256;   APACO  = 16.0  distance and # of slots for P.C.
   PSTRESS=    0.0 pullay stress

  Mass of Ions in am
   POMASS = 196.97 16.00 12.01 14.00  1.00
  Ionic Valenz
   ZVAL   =  11.00  6.00  4.00  5.00  1.00
  Atomic Wigner-Seitz radii
   RWIGS  =  -1.00 -1.00 -1.00 -1.00 -1.00
  virtual crystal weights 
   VCA    =   1.00  1.00  1.00  1.00  1.00
   NELECT =    2182.0000    total number of electrons
   NUPDOWN=      -1.0000    fix difference up-down

 DOS related values:
   EMIN   =  10.00;   EMAX   =-10.00  energy-range for DOS
   EFERMI =   0.00
   ISMEAR =     0;   SIGMA  =   0.03  broadening in eV -4-tet -1-fermi 0-gaus

 Electronic relaxation 2 (details)
   IALGO  =     68    algorithm
   LDIAG  =      T    sub-space diagonalisation (order eigenvalues)
   LSUBROT=      F    optimize rotation matrix (better conditioning)
   TURBO    =      0    0=normal 1=particle mesh
   IRESTART =      0    0=no restart 2=restart with 2 vectors
   NREBOOT  =      0    no. of reboots
   NMIN     =      0    reboot dimension
   EREF     =   0.00    reference energy to select bands
   IMIX   =      4    mixing-type and parameters
     AMIX     =   0.40;   BMIX     =  1.00
     AMIX_MAG =   1.60;   BMIX_MAG =  1.00
     AMIN     =   0.10
     WC   =   100.;   INIMIX=   1;  MIXPRE=   1;  MAXMIX= -45

 Intra band minimization:
   WEIMIN = 0.0010     energy-eigenvalue tresh-hold
   EBREAK =  0.19E-08  absolut break condition
   DEPER  =   0.30     relativ break condition  

   TIME   =   0.40     timestep for ELM

  volume/ion in A,a.u.               =      33.09       223.29
  Fermi-wavevector in a.u.,A,eV,Ry     =   1.100646  2.079919 16.482391  1.211422
  Thomas-Fermi vector in A             =   2.237060
 
 Write flags
   LWAVE        =      F    write WAVECAR
   LDOWNSAMPLE  =      F    k-point downsampling of WAVECAR
   LCHARG       =      F    write CHGCAR
   LVTOT        =      F    write LOCPOT, total local potential
   LVHAR        =      F    write LOCPOT, Hartree potential only
   LELF         =      F    write electronic localiz. function (ELF)
   LORBIT       =      0    0 simple, 1 ext, 2 COOP (PROOUT), +10 PAW based schemes


 Dipole corrections
   LMONO  =      F    monopole corrections only (constant potential shift)
   LDIPOL =      T    correct potential (dipole corrections)
   IDIPOL =      3    1-x, 2-y, 3-z, 4-all directions 
   EPSILON=  1.0000000 bulk dielectric constant

 Exchange correlation treatment:
   GGA     =    PE    GGA type
   LEXCH   =     8    internal setting for exchange type
   VOSKOWN=      0    Vosko Wilk Nusair interpolation
   LHFCALC =     F    Hartree Fock is set to
   LHFONE  =     F    Hartree Fock one center treatment
   AEXX    =    0.0000 exact exchange contribution

 Linear response parameters
   LEPSILON=     F    determine dielectric tensor
   LRPA    =     F    only Hartree local field effects (RPA)
   LNABLA  =     F    use nabla operator in PAW spheres
   LVEL    =     F    velocity operator in full k-point grid
   LINTERFAST=   F  fast interpolation
   KINTER  =     0    interpolate to denser k-point grid
   CSHIFT  =0.1000    complex shift for real part using Kramers Kronig
   OMEGAMAX=  -1.0    maximum frequency
   DEG_THRESHOLD= 0.2000000E-02 threshold for treating states as degnerate
   RTIME   =   -0.100 relaxation time in fs
  (WPLASMAI=    0.000 imaginary part of plasma frequency in eV, 0.658/RTIME)
   DFIELD  = 0.0000000 0.0000000 0.0000000 field for delta impulse in time
 
 Orbital magnetization related:
   ORBITALMAG=     F  switch on orbital magnetization
   LCHIMAG   =     F  perturbation theory with respect to B field
   DQ        =  0.001000  dq finite difference perturbation B field
   LLRAUG    =     F  two centre corrections for induced B field



--------------------------------------------------------------------------------------------------------


 conjugate gradient relaxation of ions
   using selective dynamics as specified on POSCAR
 charge density and potential will be updated during run
 non-spin polarized calculation
 RMM-DIIS sequential band-by-band and
  variant of blocked Davidson during initial phase
 perform sub-space diagonalisation
    before iterative eigenvector-optimisation
 modified Broyden-mixing scheme, WC =      100.0
 initial mixing is a Kerker type mixing with AMIX =  0.4000 and BMIX =      1.0000
 Hartree-type preconditioning will be used
 using additional bands          229
 real space projection scheme for non local part
 use partial core corrections
 calculate Harris-corrections to forces 
   (improved forces if not selfconsistent)
 use gradient corrections 
 use of overlap-Matrix (Vanderbilt PP)
 Gauss-broadening in eV      SIGMA  =   0.03


--------------------------------------------------------------------------------------------------------


  energy-cutoff  :      450.00
  volume of cell :     7180.20
      direct lattice vectors                 reciprocal lattice vectors
    20.360471435  0.000000000  0.000000000     0.049114776 -0.028356429  0.000000000
    10.180235718 17.632685496  0.000000000     0.000000000  0.056712859  0.000000000
     0.000000000  0.000000000 20.000000000     0.000000000  0.000000000  0.050000000

  length of vectors
    20.360471435 20.360471435 20.000000000     0.056712859  0.056712859  0.050000000


 
 k-points in units of 2pi/SCALE and weight: K-POINTS                                
   0.00000000  0.00000000  0.00000000       0.111
   0.01637159 -0.00945214  0.00000000       0.222
   0.00000000  0.01890429  0.00000000       0.222
   0.01637159  0.00945214  0.00000000       0.222
  -0.01637159  0.02835643  0.00000000       0.222
 
 k-points in reciprocal lattice and weights: K-POINTS                                
   0.00000000  0.00000000  0.00000000       0.111
   0.33333333  0.00000000  0.00000000       0.222
   0.00000000  0.33333333  0.00000000       0.222
   0.33333333  0.33333333  0.00000000       0.222
  -0.33333333  0.33333333  0.00000000       0.222
 
 position of ions in fractional coordinates (direct lattice) 
   0.00000000  0.00000000  0.00000000
   0.08333333  0.08333333  0.00000000
   0.16666667  0.16666667  0.00000000
   0.25000000  0.00000000  0.00000000
   0.33333333  0.08333333  0.00000000
   0.41666667  0.16666667  0.00000000
   0.00000000  0.25000000  0.00000000
   0.08333333  0.33333333  0.00000000
   0.16666667  0.41666667  0.00000000
   0.25000000  0.25000000  0.00000000
   0.33333333  0.33333333  0.00000000
   0.41666667  0.41666667  0.00000000
   0.08333333  0.00000000  0.11997523
   0.00000000  0.16666667  0.11997523
   0.16666667  0.08333333  0.11997523
   0.33333333  0.00000000  0.11997523
   0.25000000  0.16666667  0.11997523
   0.41666667  0.08333333  0.11997523
   0.08333333  0.25000000  0.11997523
   1.00000000  0.41666667  0.11997523
   0.16666667  0.33333333  0.11997523
   0.33333333  0.25000000  0.11997523
   0.25000000  0.41666667  0.11997523
   0.41666667  0.33333333  0.11997523
   0.00000035  0.08336488  0.23801787
   0.16662915  0.00005602  0.23800741
   0.08336403  0.16663264  0.23802214
   0.24998728  0.08333920  0.23805445
   0.41663817  0.00006383  0.23804126
   0.33314373  0.16657017  0.23790391
   0.00001376  0.33332952  0.23801359
   0.16665574  0.24999156  0.23803053
   0.08321851  0.41669055  0.23804231
   0.24970098  0.33335807  0.23803405
   0.41628221  0.24977637  0.23769857
   0.33288190  0.41662828  0.23782264
   0.00001624  0.00005811  0.35844108
   0.08329967  0.08334828  0.35843573
   0.16669195  0.16665062  0.35845210
   0.24995241  0.00003810  0.35844651
   0.33324587  0.08329455  0.35853755
   0.41647840  0.16604629  0.35860421
   0.00005803  0.24993341  0.35837790
   0.08339121  0.33330625  0.35841554
   0.16667802  0.41668838  0.35855596
   0.25001449  0.24996464  0.35860468
   0.33326276  0.33324476  0.35831459
   0.41637492  0.41729502  0.35609132
   1.00000000  0.50000000  0.00000000
   0.08333333  0.58333333  0.00000000
   0.16666667  0.66666667  0.00000000
   0.25000000  0.50000000  0.00000000
   0.33333333  0.58333333  0.00000000
   0.41666667  0.66666667  0.00000000
   1.00000000  0.75000000  0.00000000
   0.08333333  0.83333333  0.00000000
   0.16666667  0.91666667  0.00000000
   0.25000000  0.75000000  0.00000000
   0.33333333  0.83333333  0.00000000
   0.41666667  0.91666667  0.00000000
   0.08333333  0.50000000  0.11997523
   0.00000000  0.66666667  0.11997523
   0.16666667  0.58333333  0.11997523
   0.33333333  0.50000000  0.11997523
   0.25000000  0.66666667  0.11997523
   0.41666667  0.58333333  0.11997523
   0.08333333  0.75000000  0.11997523
   1.00000000  0.91666667  0.11997523
   0.16666667  0.83333333  0.11997523
   0.33333333  0.75000000  0.11997523
   0.25000000  0.91666667  0.11997523
   0.41666667  0.83333333  0.11997523
   0.99997619  0.58338139  0.23805333
   0.16632526  0.49997638  0.23789387
   0.08321462  0.66672855  0.23797439
   0.24962007  0.58361980  0.23753780
   0.41645512  0.50039328  0.23737680
   0.33329647  0.66745944  0.23751976
   0.00005741  0.83332048  0.23803128
   0.16663229  0.75009822  0.23800784
   0.08334013  0.91669901  0.23802189
   0.24984391  0.83361798  0.23795935
   0.41668355  0.75038771  0.23798409
   0.33332234  0.91676176  0.23801687
   0.00001929  0.50005167  0.35843455
   0.08324670  0.58342281  0.35860470
   0.16637330  0.66698339  0.35843087
   0.24934614  0.50060206  0.35788166
   0.33272490  0.58454709  0.35640128
   0.41662294  0.66715040  0.35846723
   0.99995323  0.75003610  0.35836997
   0.08327964  0.83345591  0.35839676
   0.16660022  0.91679140  0.35850205
   0.24979877  0.75052893  0.35845474
   0.33325374  0.83349262  0.35847308
   0.41663611  0.91670333  0.35834942
   0.50000000  0.00000000  0.00000000
   0.58333333  0.08333333  0.00000000
   0.66666667  0.16666667  0.00000000
   0.75000000  0.00000000  0.00000000
   0.83333333  0.08333333  0.00000000
   0.91666667  0.16666667  0.00000000
   0.50000000  0.25000000  0.00000000
   0.58333333  0.33333333  0.00000000
   0.66666667  0.41666667  0.00000000
   0.75000000  0.25000000  0.00000000
   0.83333333  0.33333333  0.00000000
   0.91666667  0.41666667  0.00000000
   0.58333333  0.00000000  0.11997523
   0.50000000  0.16666667  0.11997523
   0.66666667  0.08333333  0.11997523
   0.83333333  0.00000000  0.11997523
   0.75000000  0.16666667  0.11997523
   0.91666667  0.08333333  0.11997523
   0.58333333  0.25000000  0.11997523
   0.50000000  0.41666667  0.11997523
   0.66666667  0.33333333  0.11997523
   0.83333333  0.25000000  0.11997523
   0.75000000  0.41666667  0.11997523
   0.91666667  0.33333333  0.11997523
   0.50006469  0.08321219  0.23794710
   0.66695994  0.99964992  0.23794241
   0.58421396  0.16569054  0.23730326
   0.75047203  0.08297465  0.23796789
   0.91676673  0.99999038  0.23803290
   0.83342720  0.16657906  0.23801818
   0.50016343  0.33303394  0.23793125
   0.66674910  0.24986960  0.23807308
   0.58332854  0.41657166  0.23791082
   0.75020628  0.33308402  0.23792221
   0.91680543  0.24991330  0.23798302
   0.83339975  0.41663763  0.23788049
   0.50006473  0.99981531  0.35853033
   0.58390158  0.08206497  0.35850096
   0.66713506  0.16627257  0.35846980
   0.75011835  0.99989723  0.35856982
   0.83349482  0.08323148  0.35857305
   0.91666281  0.16665868  0.35844972
   0.50079975  0.24792467  0.35526561
   0.58333419  0.33321873  0.35830927
   0.66701979  0.41629711  0.35728625
   0.75009043  0.24976741  0.35848842
   0.83346463  0.33331405  0.35827819
   0.91678487  0.41662061  0.35836073
   0.50000000  0.50000000  0.00000000
   0.58333333  0.58333333  0.00000000
   0.66666667  0.66666667  0.00000000
   0.75000000  0.50000000  0.00000000
   0.83333333  0.58333333  0.00000000
   0.91666667  0.66666667  0.00000000
   0.50000000  0.75000000  0.00000000
   0.58333333  0.83333333  0.00000000
   0.66666667  0.91666667  0.00000000
   0.75000000  0.75000000  0.00000000
   0.83333333  0.83333333  0.00000000
   0.91666667  0.91666667  0.00000000
   0.58333333  0.50000000  0.11997523
   0.50000000  0.66666667  0.11997523
   0.66666667  0.58333333  0.11997523
   0.83333333  0.50000000  0.11997523
   0.75000000  0.66666667  0.11997523
   0.91666667  0.58333333  0.11997523
   0.58333333  0.75000000  0.11997523
   0.50000000  0.91666667  0.11997523
   0.66666667  0.83333333  0.11997523
   0.83333333  0.75000000  0.11997523
   0.75000000  0.91666667  0.11997523
   0.91666667  0.83333333  0.11997523
   0.50001695  0.58394778  0.23756655
   0.66667722  0.50009187  0.23789743
   0.58342616  0.66679463  0.23798061
   0.75001498  0.58351979  0.23791448
   0.91663819  0.50004063  0.23801372
   0.83335578  0.66665912  0.23800227
   0.50000105  0.83341981  0.23802365
   0.66665870  0.75001949  0.23803325
   0.58335130  0.91664295  0.23803007
   0.74999804  0.83327506  0.23802980
   0.91669648  0.74998304  0.23799685
   0.83342683  0.91656420  0.23803436
   0.49990260  0.50099541  0.35678193
   0.58343136  0.58359312  0.35839050
   0.66673291  0.66664308  0.35858605
   0.75033514  0.50010732  0.35791661
   0.83340419  0.58343899  0.35844757
   0.91670662  0.66667082  0.35844807
   0.50007354  0.75005841  0.35850143
   0.58336028  0.83325101  0.35844407
   0.66684775  0.91630758  0.35854032
   0.75003602  0.74994944  0.35847302
   0.83336198  0.83330326  0.35841986
   0.91667092  0.91667566  0.35838898
   0.63522947  0.38275575  0.52147414
   0.59255886  0.51032886  0.52976154
   0.34583422  0.55633280  0.53054708
   0.38955475  0.47152860  0.52337440
   0.35232101  0.42956427  0.51969424
   0.39120781  0.35062811  0.51486502
   0.47107834  0.31086547  0.51370259
   0.51025642  0.35149292  0.51597050
   0.47008297  0.43079715  0.52116455
   0.58327751  0.44850865  0.52481361
   0.67048709  0.49291478  0.53258859
   0.50666350  0.47350675  0.52407538
   0.51113046  0.23261170  0.51115876
   0.29041033  0.46018487  0.52071909
   0.36024631  0.31973407  0.51333049
   0.57192144  0.32156522  0.51544342
   0.47285837  0.53074867  0.52643336
   0.48335581  0.20504128  0.49700720
   0.56683813  0.20630018  0.49823046
   0.35910615  0.57520554  0.57781737
   0.28460495  0.57740368  0.52952979
   0.35798992  0.58513199  0.48933344
   0.66829540  0.54750381  0.52703337
   0.69597736  0.46628837  0.58076488
   0.70358442  0.45433874  0.49159375
 
 position of ions in cartesian coordinates  (Angst):
   0.00000000  0.00000000  0.00000000
   2.54505893  1.46939046  0.00000000
   5.09011786  2.93878092  0.00000000
   5.09011786  0.00000000  0.00000000
   7.63517679  1.46939046  0.00000000
  10.18023572  2.93878092  0.00000000
   2.54505893  4.40817137  0.00000000
   5.09011786  5.87756183  0.00000000
   7.63517679  7.34695229  0.00000000
   7.63517679  4.40817137  0.00000000
  10.18023572  5.87756183  0.00000000
  12.72529465  7.34695229  0.00000000
   1.69670595  0.00000000  2.39950457
   1.69670595  2.93878092  2.39950457
   4.24176488  1.46939046  2.39950457
   6.78682381  0.00000000  2.39950457
   6.78682381  2.93878092  2.39950457
   9.33188274  1.46939046  2.39950457
   4.24176488  4.40817137  2.39950457
  24.60223632  7.34695229  2.39950457
   6.78682381  5.87756183  2.39950457
   9.33188274  4.40817137  2.39950457
   9.33188274  7.34695229  2.39950457
  11.87694167  5.87756183  2.39950457
   0.84868128  1.46994673  4.76035732
   3.39321822  0.00098773  4.76014811
   3.39369056  2.93818094  4.76044280
   5.93827154  1.46949391  4.76108909
   8.48359928  0.00112541  4.76082514
   8.47868708  2.93707948  4.75807820
   3.39365320  5.87749459  4.76027188
   5.93816240  4.40802262  4.76061055
   5.93637613  7.34737334  4.76084629
   8.47769333  5.87799803  4.76068109
  11.01848443  4.40422814  4.75397135
  11.01900646  7.34627546  4.75645283
   0.00092223  0.00102462  7.16882163
   2.54452575  1.46965408  7.16871459
   5.09046925  2.93849795  7.16904191
   5.08953679  0.00067182  7.16893017
   7.63300126  1.46870665  7.17075108
  10.17008704  2.92784206  7.17208426
   2.54556248  4.40699724  7.16755807
   5.09102050  5.87708421  7.16831076
   7.63562907  7.34733521  7.17111916
   7.63511191  4.40754796  7.17209367
  10.17789716  5.87600006  7.16629181
  12.72575136  7.35803187  7.12182633
  25.45058929  8.81634275  0.00000000
   7.63517679 10.28573321  0.00000000
  10.18023572 11.75512366  0.00000000
  10.18023572  8.81634275  0.00000000
  12.72529465 10.28573321  0.00000000
  15.27035358 11.75512366  0.00000000
  27.99564822 13.22451412  0.00000000
  10.18023572 14.69390458  0.00000000
  12.72529465 16.16329504  0.00000000
  12.72529465 13.22451412  0.00000000
  15.27035358 14.69390458  0.00000000
  17.81541251 16.16329504  0.00000000
   6.78682381  8.81634275  2.39950457
   6.78682381 11.75512366  2.39950457
   9.33188274 10.28573321  2.39950457
  11.87694167  8.81634275  2.39950457
  11.87694167 11.75512366  2.39950457
  14.42200060 10.28573321  2.39950457
   9.33188274 13.22451412  2.39950457
  29.69235418 16.16329504  2.39950457
  11.87694167 14.69390458  2.39950457
  14.42200060 13.22451412  2.39950457
  14.42200060 16.16329504  2.39950457
  16.96705953 14.69390458  2.39950457
  26.29894682 10.28658058  4.76106655
   8.47633806  8.81592622  4.75787732
   8.48174267 11.75621479  4.75948771
  11.02376934 10.29078431  4.75075605
  13.57334421  8.82327738  4.74753596
  13.58096777 11.76910246  4.75039524
   8.48456792 14.69367796  4.76062566
  11.02888871 13.22624609  4.76015689
  11.02905626 16.16386535  4.76043786
  13.57336731 14.69892361  4.75918702
  16.12299737 13.23135051  4.75968177
  16.11945076 16.16497187  4.76033732
   5.09103652  8.81725377  7.16869105
   7.63432370 10.28731095  7.17209399
  10.17748697 11.76070836  7.16861747
  10.17305191  8.82695870  7.15763314
  12.72526292 10.30713499  7.12802568
  15.27438791 11.76365323  7.16934462
  27.99506334 13.22515058  7.16739939
  10.18039033 14.69606596  7.16793520
  12.72521161 16.16549445  7.17004096
  12.72658221 13.23384056  7.16909473
  15.27035455 14.69671315  7.16946167
  17.81516372 16.16394157  7.16698832
  10.18023572  0.00000000  0.00000000
  12.72529465  1.46939046  0.00000000
  15.27035358  2.93878092  0.00000000
  15.27035358  0.00000000  0.00000000
  17.81541251  1.46939046  0.00000000
  20.36047144  2.93878092  0.00000000
  12.72529465  4.40817137  0.00000000
  15.27035358  5.87756183  0.00000000
  17.81541251  7.34695229  0.00000000
  17.81541251  4.40817137  0.00000000
  20.36047144  5.87756183  0.00000000
  22.90553036  7.34695229  0.00000000
  11.87694167  0.00000000  2.39950457
  11.87694167  2.93878092  2.39950457
  14.42200060  1.46939046  2.39950457
  16.96705953  0.00000000  2.39950457
  16.96705953  2.93878092  2.39950457
  19.51211846  1.46939046  2.39950457
  14.42200060  4.40817137  2.39950457
  14.42200060  7.34695229  2.39950457
  16.96705953  5.87756183  2.39950457
  19.51211846  4.40817137  2.39950457
  19.51211846  7.34695229  2.39950457
  22.05717739  5.87756183  2.39950457
  11.02867255  1.46725441  4.75894199
  23.75629061 17.62651260  4.75884815
  13.58164037  2.92156921  4.74606517
  16.12466587  1.46306590  4.75935782
  28.84594046 17.63251580  4.76065808
  18.66478475  2.93723616  4.76036367
  13.57392720  5.87228273  4.75862501
  16.11905743  4.40587200  4.76146170
  16.11764186  7.34527706  4.75821634
  18.66542726  5.87316571  4.75844423
  21.21076707  4.40664259  4.75966050
  21.20988098  7.34644023  4.75760971
  20.35990924 17.62942897  7.17060654
  12.72395208  1.44702575  7.17001925
  15.27587834  2.93183190  7.16939601
  25.45195285 17.63087346  7.17139648
  17.81766365  1.46759453  7.17146099
  20.36031160  2.93864015  7.16899435
  12.72045051  4.37157769  7.10531212
  15.26920437  5.87554114  7.16618541
  17.81883996  7.34043596  7.14572492
  17.81488591  4.40407025  7.16976834
  20.36294838  5.87722178  7.16556380
  22.90746812  7.34614023  7.16721463
  15.27035358  8.81634275  0.00000000
  17.81541251 10.28573321  0.00000000
  20.36047143 11.75512366  0.00000000
  20.36047144  8.81634275  0.00000000
  22.90553036 10.28573321  0.00000000
  25.45058929 11.75512366  0.00000000
  17.81541251 13.22451412  0.00000000
  20.36047144 14.69390458  0.00000000
  22.90553036 16.16329504  0.00000000
  22.90553036 13.22451412  0.00000000
  25.45058929 14.69390458  0.00000000
  27.99564822 16.16329504  0.00000000
  16.96705953  8.81634275  2.39950457
  16.96705953 11.75512366  2.39950457
  19.51211846 10.28573321  2.39950457
  22.05717739  8.81634275  2.39950457
  22.05717739 11.75512366  2.39950457
  24.60223632 10.28573321  2.39950457
  19.51211846 13.22451412  2.39950457
  19.51211846 16.16329504  2.39950457
  22.05717739 14.69390458  2.39950457
  24.60223632 13.22451412  2.39950457
  24.60223632 16.16329504  2.39950457
  27.14729525 14.69390458  2.39950457
  16.12530682 10.29656747  4.75133107
  18.66491552  8.81796262  4.75794857
  18.66695821 11.75737995  4.75961228
  21.21102762 10.28902097  4.75828958
  23.75371721  8.81705912  4.76027450
  23.75426356 11.75499055  4.76004531
  18.66466724 14.69542942  4.76047295
  21.20886065 13.22485780  4.76066509
  21.20894882 16.16287682  4.76060136
  23.75325006 14.69287698  4.76059595
  26.29937662 13.22421508  4.75993691
  26.29980267 16.16148826  4.76068721
  15.27850397  8.83389445  7.13563868
  17.82005307 10.29031392  7.16780990
  20.36158008 11.75470768  7.17172093
  20.36838750  8.81823501  7.15833223
  22.90804859 10.28759628  7.16895145
  25.45144506 11.75519692  7.16896146
  17.81750434 13.22554399  7.17002864
  20.36018206 14.69245300  7.16888140
  22.90556171 16.15696329  7.17080639
  22.90574910 13.22362260  7.16946046
  25.45086647 14.69337431  7.16839726
  27.99582646 16.16345363  7.16777964
  16.83011529  6.74901172 10.42948277
  17.26004587  8.99846836 10.59523080
  12.70494678  9.80964123 10.61094163
  12.73179065  8.31431545 10.46748802
  11.54648749  7.57437174 10.39388472
  11.53465233  6.18251523 10.29730043
  12.75606086  5.48139299 10.27405180
  13.96734216  6.19776415 10.31940992
  13.95672742  7.59611072 10.42329104
  16.44172882  7.90841190 10.49627217
  18.66942195  8.69141133 10.65177182
  15.13631795  8.34919556 10.48150760
  12.77489898  4.10156896 10.22317529
  10.59768164  8.11429502 10.41438175
  10.58975297  5.63777025 10.26660987
  14.91819985  5.67005843 10.30886836
  15.03076582  9.35852436 10.52866727
  11.92872079  3.61542841  9.94014409
  13.64127609  3.63762617  9.96460918
  13.16729864 10.14241846 11.55634748
  11.67279653 10.18117749 10.59059586
  13.24562508 10.31744835  9.78666877
  19.18052721  9.65396245 10.54066731
  18.91735269  8.22191625 11.61529762
  18.95058598  8.01121213  9.83187505
 


--------------------------------------------------------------------------------------------------------


 k-point  1 :   0.0000 0.0000 0.0000  plane waves:  155667
 k-point  2 :   0.3333 0.0000 0.0000  plane waves:  155683
 k-point  3 :   0.0000 0.3333 0.0000  plane waves:  155683
 k-point  4 :   0.3333 0.3333 0.0000  plane waves:  155683
 k-point  5 :  -0.3333 0.3333 0.0000  plane waves:  155607

 maximum and minimum number of plane-waves per node :     38947    38880

 maximum number of plane-waves:    155683
 maximum index in each direction: 
   IXMAX=   35   IYMAX=   35   IZMAX=   34
   IXMIN=  -35   IYMIN=  -35   IZMIN=  -34


 real space projection operators:
  total allocation   :      57326.78 KBytes
  max/ min on nodes  :      14335.93      14323.51


 parallel 3D FFT for wavefunctions:
    minimum data exchange during FFTs selected (reduces bandwidth)
 parallel 3D FFT for charge:
    minimum data exchange during FFTs selected (reduces bandwidth)


 total amount of memory used by VASP MPI-rank0   455977. kBytes
=======================================================================

   base      :      30000. kBytes
   nonlr-proj:      25551. kBytes
   fftplans  :      17430. kBytes
   grid      :      31444. kBytes
   one-center:        855. kBytes
   wavefun   :     350697. kBytes
 
     INWAV:  cpu time    0.0000: real time    0.0003
 Broyden mixing: mesh for mixing (old mesh)
   NGX = 71   NGY = 71   NGZ = 69
  (NGX  =216   NGY  =216   NGZ  =216)
  gives a total of 347829 points

 initial charge density was supplied:
 charge density of overlapping atoms calculated
 number of electron    2182.0000000 magnetization 
 keeping initial charge density in first step


--------------------------------------------------------------------------------------------------------


 Maximum index for non-local projection operator          540
 Maximum index for augmentation-charges          527 (set IRDMAX)


--------------------------------------------------------------------------------------------------------


 First call to EWALD:  gamma=   0.092
 Maximum number of real-space cells 3x 3x 3
 Maximum number of reciprocal cells 3x 3x 3

    FEWALD:  cpu time    0.0100: real time    0.0100


--------------------------------------- Iteration      1(   1)  ---------------------------------------


    POTLOK:  cpu time    0.1862: real time    0.1988
    SETDIJ:  cpu time    0.0182: real time    0.0260
     EDDAV:  cpu time  154.1076: real time  154.2767
       DOS:  cpu time    0.0020: real time    0.0020
    --------------------------------------------
      LOOP:  cpu time  154.3140: real time  154.5035

 eigenvalue-minimisations  : 13236
 total energy-change (2. order) : 0.1381588E+05  (-0.9459844E+05)
 number of electron    2182.0000000 magnetization 
 augmentation part     2182.0000000 magnetization 

 DIPCOR: dipole corrections for dipol
 direction  3 min pos   156,
 dipolmoment           0.000000      0.000000     -0.028238 electrons x Angstroem
 Tr[quadrupol]   -157678.788144

 energy correction for charged system         0.000000 eV
 dipol+quadrupol energy correction           -0.000011 eV
 added-field ion interaction         -0.915408 eV  (added to PSCEN)


 Free energy of the ion-electron system (eV)
  ---------------------------------------------------
  alpha Z        PSCENC =      6269.72214071
  Ewald energy   TEWEN  =    332578.52864185
  -Hartree energ DENC   =   -524497.19598465
  -exchange      EXHF   =         0.00000000
  -V(xc)+E(xc)   XCENC  =      3174.74139446
  PAW double counting   =    169931.99180740  -165510.42754507
  entropy T*S    EENTRO =        -0.03627379
  eigenvalues    EBANDS =     11193.17187842
  atomic energy  EATOM  =    180675.37932380
  Solvation  Ediel_sol  =         0.00000000
  ---------------------------------------------------
  free energy    TOTEN  =     13815.87538312 eV

  energy without entropy =    13815.91165690  energy(sigma->0) =    13815.89352001


--------------------------------------------------------------------------------------------------------




--------------------------------------- Iteration      1(   2)  ---------------------------------------


     EDDAV:  cpu time  168.7980: real time  168.8744
       DOS:  cpu time    0.0020: real time    0.0020
    --------------------------------------------
      LOOP:  cpu time  168.8000: real time  168.8763

 eigenvalue-minimisations  : 14808
 total energy-change (2. order) :-0.1377679E+05  (-0.1280649E+05)
 number of electron    2182.0000000 magnetization 
 augmentation part     2182.0000000 magnetization 

 DIPCOR: dipole corrections for dipol
 direction  3 min pos   156,
 dipolmoment           0.000000      0.000000     -0.028238 electrons x Angstroem
 Tr[quadrupol]   -157678.788144

 energy correction for charged system         0.000000 eV
 dipol+quadrupol energy correction           -0.000011 eV
 added-field ion interaction         -0.915408 eV  (added to PSCEN)


 Free energy of the ion-electron system (eV)
  ---------------------------------------------------
  alpha Z        PSCENC =      6269.72214071
  Ewald energy   TEWEN  =    332578.52864185
  -Hartree energ DENC   =   -524497.19598465
  -exchange      EXHF   =         0.00000000
  -V(xc)+E(xc)   XCENC  =      3174.74139446
  PAW double counting   =    169931.99180740  -165510.42754507
  entropy T*S    EENTRO =        -0.03064886
  eigenvalues    EBANDS =     -2583.62423596
  atomic energy  EATOM  =    180675.37932380
  Solvation  Ediel_sol  =         0.00000000
  ---------------------------------------------------
  free energy    TOTEN  =        39.08489367 eV

  energy without entropy =       39.11554253  energy(sigma->0) =       39.10021810


--------------------------------------------------------------------------------------------------------




--------------------------------------- Iteration      1(   3)  ---------------------------------------


     EDDAV:  cpu time  169.9204: real time  170.0293
       DOS:  cpu time    0.0020: real time    0.0020
    --------------------------------------------
      LOOP:  cpu time  169.9224: real time  170.0313

 eigenvalue-minimisations  : 14940
 total energy-change (2. order) :-0.8237448E+03  (-0.7862705E+03)
 number of electron    2182.0000000 magnetization 
 augmentation part     2182.0000000 magnetization 

 DIPCOR: dipole corrections for dipol
 direction  3 min pos   156,
 dipolmoment           0.000000      0.000000     -0.028238 electrons x Angstroem
 Tr[quadrupol]   -157678.788144

 energy correction for charged system         0.000000 eV
 dipol+quadrupol energy correction           -0.000011 eV
 added-field ion interaction         -0.915408 eV  (added to PSCEN)


 Free energy of the ion-electron system (eV)
  ---------------------------------------------------
  alpha Z        PSCENC =      6269.72214071
  Ewald energy   TEWEN  =    332578.52864185
  -Hartree energ DENC   =   -524497.19598465
  -exchange      EXHF   =         0.00000000
  -V(xc)+E(xc)   XCENC  =      3174.74139446
  PAW double counting   =    169931.99180740  -165510.42754507
  entropy T*S    EENTRO =        -0.04557211
  eigenvalues    EBANDS =     -3407.35410074
  atomic energy  EATOM  =    180675.37932380
  Solvation  Ediel_sol  =         0.00000000
  ---------------------------------------------------
  free energy    TOTEN  =      -784.65989436 eV

  energy without entropy =     -784.61432225  energy(sigma->0) =     -784.63710831


--------------------------------------------------------------------------------------------------------




--------------------------------------- Iteration      1(   4)  ---------------------------------------


     EDDAV:  cpu time  172.3705: real time  172.4751
       DOS:  cpu time    0.0020: real time    0.0020
    --------------------------------------------
      LOOP:  cpu time  172.3725: real time  172.4771

 eigenvalue-minimisations  : 15168
 total energy-change (2. order) :-0.2392852E+02  (-0.2363077E+02)
 number of electron    2182.0000000 magnetization 
 augmentation part     2182.0000000 magnetization 

 DIPCOR: dipole corrections for dipol
 direction  3 min pos   156,
 dipolmoment           0.000000      0.000000     -0.028238 electrons x Angstroem
 Tr[quadrupol]   -157678.788144

 energy correction for charged system         0.000000 eV
 dipol+quadrupol energy correction           -0.000011 eV
 added-field ion interaction         -0.915408 eV  (added to PSCEN)


 Free energy of the ion-electron system (eV)
  ---------------------------------------------------
  alpha Z        PSCENC =      6269.72214071
  Ewald energy   TEWEN  =    332578.52864185
  -Hartree energ DENC   =   -524497.19598465
  -exchange      EXHF   =         0.00000000
  -V(xc)+E(xc)   XCENC  =      3174.74139446
  PAW double counting   =    169931.99180740  -165510.42754507
  entropy T*S    EENTRO =        -0.04701193
  eigenvalues    EBANDS =     -3431.28118175
  atomic energy  EATOM  =    180675.37932380
  Solvation  Ediel_sol  =         0.00000000
  ---------------------------------------------------
  free energy    TOTEN  =      -808.58841519 eV

  energy without entropy =     -808.54140326  energy(sigma->0) =     -808.56490923


--------------------------------------------------------------------------------------------------------




--------------------------------------- Iteration      1(   5)  ---------------------------------------


     EDDAV:  cpu time  178.5071: real time  178.6144
       DOS:  cpu time    0.0020: real time    0.0020
    --------------------------------------------
      LOOP:  cpu time  178.5091: real time  178.6164

 eigenvalue-minimisations  : 15768
 total energy-change (2. order) :-0.9115236E+00  (-0.9087511E+00)
 number of electron    2182.0000000 magnetization 
 augmentation part     2182.0000000 magnetization 

 DIPCOR: dipole corrections for dipol
 direction  3 min pos   156,
 dipolmoment           0.000000      0.000000     -0.028238 electrons x Angstroem
 Tr[quadrupol]   -157678.788144

 energy correction for charged system         0.000000 eV
 dipol+quadrupol energy correction           -0.000011 eV
 added-field ion interaction         -0.915408 eV  (added to PSCEN)


 Free energy of the ion-electron system (eV)
  ---------------------------------------------------
  alpha Z        PSCENC =      6269.72214071
  Ewald energy   TEWEN  =    332578.52864185
  -Hartree energ DENC   =   -524497.19598465
  -exchange      EXHF   =         0.00000000
  -V(xc)+E(xc)   XCENC  =      3174.74139446
  PAW double counting   =    169931.99180740  -165510.42754507
  entropy T*S    EENTRO =        -0.04705302
  eigenvalues    EBANDS =     -3432.19266425
  atomic energy  EATOM  =    180675.37932380
  Solvation  Ediel_sol  =         0.00000000
  ---------------------------------------------------
  free energy    TOTEN  =      -809.49993879 eV

  energy without entropy =     -809.45288576  energy(sigma->0) =     -809.47641227


--------------------------------------------------------------------------------------------------------




--------------------------------------- Iteration      1(   6)  ---------------------------------------


     EDDAV:  cpu time  188.7775: real time  188.9133
       DOS:  cpu time    0.0019: real time    0.0019
    --------------------------------------------
      LOOP:  cpu time  188.7794: real time  188.9152

 eigenvalue-minimisations  : 17016
 total energy-change (2. order) :-0.4429717E-01  (-0.4426692E-01)
 number of electron    2182.0000000 magnetization 
 augmentation part     2182.0000000 magnetization 

 DIPCOR: dipole corrections for dipol
 direction  3 min pos   156,
 dipolmoment           0.000000      0.000000     -0.028238 electrons x Angstroem
 Tr[quadrupol]   -157678.788144

 energy correction for charged system         0.000000 eV
 dipol+quadrupol energy correction           -0.000011 eV
 added-field ion interaction         -0.915408 eV  (added to PSCEN)


 Free energy of the ion-electron system (eV)
  ---------------------------------------------------
  alpha Z        PSCENC =      6269.72214071
  Ewald energy   TEWEN  =    332578.52864185
  -Hartree energ DENC   =   -524497.19598465
  -exchange      EXHF   =         0.00000000
  -V(xc)+E(xc)   XCENC  =      3174.74139446
  PAW double counting   =    169931.99180740  -165510.42754507
  entropy T*S    EENTRO =        -0.04706583
  eigenvalues    EBANDS =     -3432.23694862
  atomic energy  EATOM  =    180675.37932380
  Solvation  Ediel_sol  =         0.00000000
  ---------------------------------------------------
  free energy    TOTEN  =      -809.54423596 eV

  energy without entropy =     -809.49717013  energy(sigma->0) =     -809.52070304


--------------------------------------------------------------------------------------------------------




--------------------------------------- Iteration      1(   7)  ---------------------------------------


     EDDAV:  cpu time  205.2683: real time  205.4042
[...]
 total energy-change (2. order) :-0.5598995E-06  (-0.4301163E-06)
 number of electron    2181.9997640 magnetization 
 augmentation part      776.6524328 magnetization 

 DIPCOR: dipole corrections for dipol
 direction  3 min pos   155,
 dipolmoment           0.000000      0.000000     -0.437501 electrons x Angstroem
 Tr[quadrupol]   -157673.583485

 energy correction for charged system         0.000000 eV
 dipol+quadrupol energy correction           -0.002579 eV
 added-field ion interaction        -11.800228 eV  (added to PSCEN)


 eigenvalues of (default mixing * dielectric matrix)
  average eigenvalue GAMMA=   0.6938
  0.6938

  free energy =  -0.742452247222E+03  energy without entropy=  -0.742374210508E+03


--------------------------------------------------------------------------------------------------------




--------------------------------------- Iteration      3(   3)  ---------------------------------------


    POTLOK:  cpu time    0.1733: real time    0.1747
    SETDIJ:  cpu time    0.0206: real time    0.0206
    EDDIAG:  cpu time   27.9213: real time   27.9522
  RMM-DIIS:  cpu time   23.8034: real time   23.8330
    ORTHCH:  cpu time    8.6941: real time    8.7011
       DOS:  cpu time    0.0023: real time    0.0023
    CHARGE:  cpu time    6.9203: real time    6.9234
    MIXING:  cpu time    0.0062: real time    0.0062
    --------------------------------------------
      LOOP:  cpu time   67.5417: real time   67.6135

 eigenvalue-minimisations  :  1874
 total energy-change (2. order) :-0.5238689E-08  (-0.2055820E-07)
 number of electron    2181.9997640 magnetization 
 augmentation part      776.6524222 magnetization 

 DIPCOR: dipole corrections for dipol
 direction  3 min pos   155,
 dipolmoment           0.000000      0.000000     -0.438058 electrons x Angstroem
 Tr[quadrupol]   -157673.582818

 energy correction for charged system         0.000000 eV
 dipol+quadrupol energy correction           -0.002586 eV
 added-field ion interaction        -11.815254 eV  (added to PSCEN)


 eigenvalues of (default mixing * dielectric matrix)
  average eigenvalue GAMMA=   0.7064
  1.0334  0.3795

  free energy =  -0.742452247227E+03  energy without entropy=  -0.742374209962E+03


--------------------------------------------------------------------------------------------------------




--------------------------------------- Iteration      3(   4)  ---------------------------------------


    POTLOK:  cpu time    0.1733: real time    0.1750
    SETDIJ:  cpu time    0.0174: real time    0.0174
    EDDIAG:  cpu time   27.8561: real time   27.8833
  RMM-DIIS:  cpu time   22.3527: real time   22.3642
    ORTHCH:  cpu time    8.7418: real time    8.7452
       DOS:  cpu time    0.0022: real time    0.0022
    CHARGE:  cpu time    6.9567: real time    6.9608
    MIXING:  cpu time    0.0062: real time    0.0062
    --------------------------------------------
      LOOP:  cpu time   66.1065: real time   66.1543

 eigenvalue-minimisations  :  1204
 total energy-change (2. order) : 0.3262539E-07  (-0.4166991E-08)
 number of electron    2181.9997640 magnetization 
 augmentation part      776.6524311 magnetization 

 DIPCOR: dipole corrections for dipol
 direction  3 min pos   155,
 dipolmoment           0.000000      0.000000     -0.437660 electrons x Angstroem
 Tr[quadrupol]   -157673.583262

 energy correction for charged system         0.000000 eV
 dipol+quadrupol energy correction           -0.002581 eV
 added-field ion interaction        -11.804505 eV  (added to PSCEN)


 eigenvalues of (default mixing * dielectric matrix)
  average eigenvalue GAMMA=   1.0198
  1.8658  0.9375  0.2562

  free energy =  -0.742452247194E+03  energy without entropy=  -0.742374210325E+03


--------------------------------------------------------------------------------------------------------




--------------------------------------- Iteration      3(   5)  ---------------------------------------


    POTLOK:  cpu time    0.1749: real time    0.1751
    SETDIJ:  cpu time    0.0174: real time    0.0174
    EDDIAG:  cpu time   27.8498: real time   27.8716
  RMM-DIIS:  cpu time   22.4064: real time   22.5146
    ORTHCH:  cpu time    8.6831: real time    8.7393
       DOS:  cpu time    0.0020: real time    0.0020
    --------------------------------------------
      LOOP:  cpu time   59.1335: real time   59.3199

 eigenvalue-minimisations  :  1265
 total energy-change (2. order) :-0.1059088E-06  (-0.4177346E-08)
 number of electron    2181.9997640 magnetization 
 augmentation part      776.6524311 magnetization 

 DIPCOR: dipole corrections for dipol
 direction  3 min pos   155,
 dipolmoment           0.000000      0.000000     -0.437725 electrons x Angstroem
 Tr[quadrupol]   -157673.583213

 energy correction for charged system         0.000000 eV
 dipol+quadrupol energy correction           -0.002582 eV
 added-field ion interaction        -11.806268 eV  (added to PSCEN)


  free energy =  -0.742452247300E+03  energy without entropy=  -0.742374210439E+03


--------------------------------------------------------------------------------------------------------




------------------------ aborting loop because EDIFF is reached ----------------------------------------


    CHARGE:  cpu time    6.8718: real time    6.9333
    FORLOC:  cpu time    0.2022: real time    0.2022
    FORNL :  cpu time   25.6680: real time   25.8417
    STRESS:  cpu time   77.0103: real time   77.2411
    FORCOR:  cpu time    0.3463: real time    0.3463
    FORHAR:  cpu time    0.2416: real time    0.2416
    MIXING:  cpu time    0.0064: real time    0.0064
    OFIELD:  cpu time    0.0001: real time    0.0001

  Number of pair interactions contributing to vdW energy:  868613
  Edisp (eV):  -17.57889
    FORVDW:  cpu time    0.1259: real time    0.1259

  FORCE on cell =-STRESS in cart. coord.  units (eV):
  Direction    XX          YY          ZZ          XY          YZ          ZX
  --------------------------------------------------------------------------------------
  Alpha Z  6270.63756  6270.63756  6270.63756
  Ewald  453346.40566452249.11298************   600.25183   332.76374   134.85532
  Hartree503097.64256502045.69189************   544.16054   223.09438   104.24022
  E(xc)   -9754.81965 -9754.72954 -9798.25496     0.07070     0.46518     0.12772
  Local  ************************************ -1147.22451  -543.07650  -236.42993
  n-local  -440.82285  -445.08173  -321.09478     0.88621     0.27596     0.26565
  augment 12997.46061 12997.01315 13078.58577     0.09135    -0.31708    -0.08556
  Kinetic 30429.18064 30428.98719 30843.22707     1.69563   -13.13335    -2.97387
  Fock        0.00000     0.00000     0.00000     0.00000     0.00000     0.00000
  vdW       -23.83748   -23.97760   -19.07080    -0.02757    -0.01336     0.00955
  -------------------------------------------------------------------------------------
  Total    -124.22545  -124.67843    -2.43648    -0.09582     0.05896     0.00910
  in kB     -27.71947   -27.82055    -0.54367    -0.02138     0.01316     0.00203
  external pressure =      -18.69 kB  Pullay stress =        0.00 kB



--------------------------------------------------------------------------------------------------------



  FREE ENERGIE OF THE ION-ELECTRON SYSTEM (eV)
  ---------------------------------------------------
  free  energy   TOTEN  =      -760.03114208 eV

  energy  without entropy=     -759.95310521  energy(sigma->0) =     -759.99212364
 
 d Force = 0.1215988E-05[-0.309E-07, 0.246E-05]  d Energy = 0.1200943E-05 0.150E-07
 d Force =-0.6450505E-01[-0.645E-01,-0.645E-01]  d Ewald  =-0.6450504E-01-0.105E-08


--------------------------------------------------------------------------------------------------------


    POTLOK:  cpu time    0.1931: real time    0.1934


--------------------------------------------------------------------------------------------------------




--------------------------------------------------------------------------------------------------------


    WAVPRE:  cpu time    0.1721: real time    0.1735
    FEWALD:  cpu time    0.0083: real time    0.0083

 real space projection operators:
  total allocation   :      57326.88 KBytes
  max/ min on nodes  :      14335.84      14323.61

    ORTHCH:  cpu time   17.2315: real time   17.3302
     LOOP+:  cpu time  555.0716: real time  556.1099


--------------------------------------- Iteration      4(   1)  ---------------------------------------


    POTLOK:  cpu time    0.1757: real time    0.1760
    SETDIJ:  cpu time    0.0173: real time    0.0173
     EDDAV:  cpu time  155.5081: real time  155.7453
       DOS:  cpu time    0.0021: real time    0.0021
    CHARGE:  cpu time    6.9129: real time    6.9170
    MIXING:  cpu time    0.0053: real time    0.0053
    --------------------------------------------
      LOOP:  cpu time  162.6214: real time  162.8630

 eigenvalue-minimisations  : 13344
 total energy-change (2. order) :-0.3180484E-04  (-0.4473891E-03)
 number of electron    2181.9997640 magnetization 
 augmentation part      776.6524751 magnetization 

 DIPCOR: dipole corrections for dipol
 direction  3 min pos   155,
 dipolmoment           0.000000      0.000000     -0.437705 electrons x Angstroem
 Tr[quadrupol]   -157673.714229

 energy correction for charged system         0.000000 eV
 dipol+quadrupol energy correction           -0.002582 eV
 added-field ion interaction        -11.805748 eV  (added to PSCEN)


  free energy =  -0.742452278999E+03  energy without entropy=  -0.742374243568E+03


--------------------------------------------------------------------------------------------------------




--------------------------------------- Iteration      4(   2)  ---------------------------------------


    POTLOK:  cpu time    0.1736: real time    0.1742
    SETDIJ:  cpu time    0.0174: real time    0.0174
    EDDIAG:  cpu time   27.9632: real time   27.9961
  RMM-DIIS:  cpu time   43.5495: real time   43.5717
    ORTHCH:  cpu time    8.6818: real time    8.6898
       DOS:  cpu time    0.0022: real time    0.0022
    CHARGE:  cpu time    6.9265: real time    6.9298
    MIXING:  cpu time    0.0057: real time    0.0057
    --------------------------------------------
      LOOP:  cpu time   87.3198: real time   87.3870

 eigenvalue-minimisations  :  9059
 total energy-change (2. order) :-0.1001504E-04  (-0.1188670E-04)
 number of electron    2181.9997640 magnetization 
 augmentation part      776.6525598 magnetization 

 DIPCOR: dipole corrections for dipol
 direction  3 min pos   155,
 dipolmoment           0.000000      0.000000     -0.437778 electrons x Angstroem
 Tr[quadrupol]   -157673.714514

 energy correction for charged system         0.000000 eV
 dipol+quadrupol energy correction           -0.002583 eV
 added-field ion interaction        -11.807726 eV  (added to PSCEN)


 eigenvalues of (default mixing * dielectric matrix)
  average eigenvalue GAMMA=   0.7964
  0.7964

  free energy =  -0.742452289014E+03  energy without entropy=  -0.742374253720E+03


--------------------------------------------------------------------------------------------------------




--------------------------------------- Iteration      4(   3)  ---------------------------------------


    POTLOK:  cpu time    0.1818: real time    0.1853
    SETDIJ:  cpu time    0.0173: real time    0.0173
    EDDIAG:  cpu time   27.8591: real time   27.8731
  RMM-DIIS:  cpu time   35.7452: real time   35.7731
    ORTHCH:  cpu time    8.6777: real time    8.6813
       DOS:  cpu time    0.0023: real time    0.0023
    CHARGE:  cpu time    6.9257: real time    6.9291
    MIXING:  cpu time    0.0063: real time    0.0063
    --------------------------------------------
      LOOP:  cpu time   79.4152: real time   79.4677

 eigenvalue-minimisations  :  7100
 total energy-change (2. order) : 0.1375825E-05  (-0.6153027E-06)
 number of electron    2181.9997640 magnetization 
 augmentation part      776.6525367 magnetization 

 DIPCOR: dipole corrections for dipol
 direction  3 min pos   155,
 dipolmoment           0.000000      0.000000     -0.437632 electrons x Angstroem
 Tr[quadrupol]   -157673.714898

 energy correction for charged system         0.000000 eV
 dipol+quadrupol energy correction           -0.002581 eV
 added-field ion interaction        -11.803787 eV  (added to PSCEN)


 eigenvalues of (default mixing * dielectric matrix)
  average eigenvalue GAMMA=   1.2817
  0.9866  1.5768

  free energy =  -0.742452287639E+03  energy without entropy=  -0.742374252743E+03


--------------------------------------------------------------------------------------------------------




--------------------------------------- Iteration      4(   4)  ---------------------------------------


    POTLOK:  cpu time    0.1737: real time    0.1752
    SETDIJ:  cpu time    0.0174: real time    0.0174
    EDDIAG:  cpu time   27.8903: real time   27.9087
  RMM-DIIS:  cpu time   35.6164: real time   35.6458
    ORTHCH:  cpu time    8.6926: real time    8.7096
       DOS:  cpu time    0.0023: real time    0.0023
    CHARGE:  cpu time    6.9141: real time    6.9199
    MIXING:  cpu time    0.0068: real time    0.0068
    --------------------------------------------
      LOOP:  cpu time   79.3136: real time   79.3857

 eigenvalue-minimisations  :  7146
 total energy-change (2. order) :-0.2179295E-06  (-0.3648024E-06)
 number of electron    2181.9997640 magnetization 
 augmentation part      776.6525096 magnetization 

 DIPCOR: dipole corrections for dipol
 direction  3 min pos   155,
 dipolmoment           0.000000      0.000000     -0.438496 electrons x Angstroem
 Tr[quadrupol]   -157673.714431

 energy correction for charged system         0.000000 eV
 dipol+quadrupol energy correction           -0.002591 eV
 added-field ion interaction        -11.827100 eV  (added to PSCEN)


 eigenvalues of (default mixing * dielectric matrix)
  average eigenvalue GAMMA=   1.0880
  1.8405  0.9187  0.5049

  free energy =  -0.742452287856E+03  energy without entropy=  -0.742374251859E+03


--------------------------------------------------------------------------------------------------------




--------------------------------------- Iteration      4(   5)  ---------------------------------------


    POTLOK:  cpu time    0.1734: real time    0.1749
    SETDIJ:  cpu time    0.0174: real time    0.0174
    EDDIAG:  cpu time   27.9604: real time   27.9908
  RMM-DIIS:  cpu time   26.4353: real time   26.4529
    ORTHCH:  cpu time    8.6931: real time    8.6977
       DOS:  cpu time    0.0020: real time    0.0020
    --------------------------------------------
      LOOP:  cpu time   63.2816: real time   63.3357

 eigenvalue-minimisations  :  3071
 total energy-change (2. order) : 0.5854818E-06  (-0.6189931E-07)
 number of electron    2181.9997640 magnetization 
 augmentation part      776.6525096 magnetization 

 DIPCOR: dipole corrections for dipol
 direction  3 min pos   155,
 dipolmoment           0.000000      0.000000     -0.437438 electrons x Angstroem
 Tr[quadrupol]   -157673.715797

 energy correction for charged system         0.000000 eV
 dipol+quadrupol energy correction           -0.002579 eV
 added-field ion interaction        -11.798565 eV  (added to PSCEN)


  free energy =  -0.742452287271E+03  energy without entropy=  -0.742374252239E+03


--------------------------------------------------------------------------------------------------------




------------------------ aborting loop because EDIFF is reached ----------------------------------------


    CHARGE:  cpu time    6.9155: real time    6.9220
    FORLOC:  cpu time    0.2025: real time    0.2028
    FORNL :  cpu time   25.8882: real time   25.9073
    STRESS:  cpu time   77.0478: real time   77.0945
    FORCOR:  cpu time    0.3477: real time    0.3478
    FORHAR:  cpu time    0.2404: real time    0.2405
    MIXING:  cpu time    0.0063: real time    0.0063
    OFIELD:  cpu time    0.0001: real time    0.0001

  Number of pair interactions contributing to vdW energy:  868613
  Edisp (eV):  -17.57890
    FORVDW:  cpu time    0.1260: real time    0.1260

  FORCE on cell =-STRESS in cart. coord.  units (eV):
  Direction    XX          YY          ZZ          XY          YZ          ZX
  --------------------------------------------------------------------------------------
  Alpha Z  6270.63756  6270.63756  6270.63756
  Ewald  453346.90469452249.73479************   600.08496   332.83507   134.77716
  Hartree503098.28065502046.19043************   544.11831   223.14693   104.17809
  E(xc)   -9754.82282 -9754.73183 -9798.25748     0.07024     0.46533     0.12761
  Local  ************************************ -1147.04300  -543.19620  -236.29373
  n-local  -440.81956  -445.08847  -321.09688     0.88750     0.27527     0.26650
  augment 12997.46162 12997.01330 13078.58488     0.09178    -0.31714    -0.08561
  Kinetic 30429.20885 30428.99393 30843.23149     1.71138   -13.13361    -2.97144
  Fock        0.00000     0.00000     0.00000     0.00000     0.00000     0.00000
  vdW       -23.83726   -23.97751   -19.07090    -0.02756    -0.01334     0.00948
  -------------------------------------------------------------------------------------
  Total    -124.22585  -124.64430    -2.42652    -0.10639     0.06230     0.00807
  in kB     -27.71956   -27.81293    -0.54145    -0.02374     0.01390     0.00180
  external pressure =      -18.69 kB  Pullay stress =        0.00 kB



--------------------------------------------------------------------------------------------------------



  FREE ENERGIE OF THE ION-ELECTRON SYSTEM (eV)
  ---------------------------------------------------
  free  energy   TOTEN  =      -760.03118697 eV

  energy  without entropy=     -759.95315193  energy(sigma->0) =     -759.99216945
 
 d Force = 0.4194767E-04[ 0.144E-04, 0.695E-04]  d Energy = 0.4489070E-04-0.294E-05
 d Force =-0.6977095E+00[-0.698E+00,-0.698E+00]  d Ewald  =-0.6977090E+00-0.409E-06


--------------------------------------------------------------------------------------------------------


    POTLOK:  cpu time    0.1929: real time    0.1932


--------------------------------------------------------------------------------------------------------


 Conjugate gradient step on ions:
 trial-energy change:   -0.000045  1 .order   -0.000042   -0.000069   -0.000014
  (g-gl).g = 0.684E-04      g.g   = 0.681E-04  gl.gl    = 0.231E-03
 g(Force)  = 0.681E-04   g(Stress)= 0.000E+00 ortho     =-0.285E-06
 gamma     =   0.29577
 trial     =   1.02174
 opt step  =   1.28978  (harmonic =   1.28978) maximal distance =0.00034322
 next E    =  -760.031186   (d E  =  -0.00004)


--------------------------------------------------------------------------------------------------------


  
 reached required accuracy - stopping structural energy minimisation
     LOOP+:  cpu time  582.9608: real time  583.5226
    4ORBIT:  cpu time    0.0000: real time    0.0000

 total amount of memory used by VASP MPI-rank0   455977. kBytes
=======================================================================

   base      :      30000. kBytes
   nonlr-proj:      25551. kBytes
   fftplans  :      17430. kBytes
   grid      :      31444. kBytes
   one-center:        855. kBytes
   wavefun   :     350697. kBytes
 
  
  
 General timing and accounting informations for this job:
 ========================================================
  
                  Total CPU time used (sec):     5505.408
                            User time (sec):     5337.616
                          System time (sec):      167.792
                         Elapsed time (sec):     5511.723
  
                   Maximum memory used (kb):      632644.
                   Average memory used (kb):           0.
  
                          Minor page faults:        71125
                          Major page faults:            0
                 Voluntary context switches:         4574
