 vasp.5.4.4.18Apr17-6-g9f103f2a35 (build Jun 30 2017 19:19:18) complex          
  
 executed on         MareNostrum4 date 2022.05.16  17:47:10
 running on   48 total cores
 distrk:  each k-point on   48 cores,    1 groups
 distr:  one band on NCORES_PER_BAND=   1 cores,   48 groups


--------------------------------------------------------------------------------------------------------


 INCAR:
 POTCAR:    PAW_PBE Pt 04Feb2005                  
 POTCAR:    PAW_PBE H 15Jun2001                   
 POTCAR:    PAW_PBE C 08Apr2002                   

 ----------------------------------------------------------------------------- 
|                                                                             |
|           W    W    AA    RRRRR   N    N  II  N    N   GGGG   !!!           |
|           W    W   A  A   R    R  NN   N  II  NN   N  G    G  !!!           |
|           W    W  A    A  R    R  N N  N  II  N N  N  G       !!!           |
|           W WW W  AAAAAA  RRRRR   N  N N  II  N  N N  G  GGG   !            |
|           WW  WW  A    A  R   R   N   NN  II  N   NN  G    G                |
|           W    W  A    A  R    R  N    N  II  N    N   GGGG   !!!           |
|                                                                             |
|      For optimal performance we recommend to set                            |
|        NCORE= 4 - approx SQRT( number of cores)                             |
|      NCORE specifies how many cores store one orbital (NPAR=cpu/NCORE).     |
|      This setting can  greatly improve the performance of VASP for DFT.     |
|      The default,   NCORE=1            might be grossly inefficient         |
|      on modern multi-core architectures or massively parallel machines.     |
|      Do your own testing !!!!                                               |
|      Unfortunately you need to use the default for GW and RPA calculations. |
|      (for HF NCORE is supported but not extensively tested yet)             |
|                                                                             |
 ----------------------------------------------------------------------------- 

 POTCAR:    PAW_PBE Pt 04Feb2005                  
  local pseudopotential read in
  partial core-charges read in
  partial kinetic energy density read in
  atomic valenz-charges read in
  non local Contribution for L=           2  read in
    real space projection operators read in
  non local Contribution for L=           2  read in
    real space projection operators read in
  non local Contribution for L=           0  read in
    real space projection operators read in
  non local Contribution for L=           0  read in
    real space projection operators read in
  non local Contribution for L=           1  read in
    real space projection operators read in
  non local Contribution for L=           1  read in
    real space projection operators read in
    PAW grid and wavefunctions read in
 
   number of l-projection  operators is LMAX  =           6
   number of lm-projection operators is LMMAX =          18
 
 POTCAR:    PAW_PBE H 15Jun2001                   
  local pseudopotential read in
  atomic valenz-charges read in
  non local Contribution for L=           0  read in
    real space projection operators read in
  non local Contribution for L=           0  read in
    real space projection operators read in
  non local Contribution for L=           1  read in
    real space projection operators read in
    PAW grid and wavefunctions read in
 
   number of l-projection  operators is LMAX  =           3
   number of lm-projection operators is LMMAX =           5
 
 POTCAR:    PAW_PBE C 08Apr2002                   
  local pseudopotential read in
  partial core-charges read in
  partial kinetic energy density read in
  atomic valenz-charges read in
  non local Contribution for L=           0  read in
    real space projection operators read in
  non local Contribution for L=           0  read in
    real space projection operators read in
  non local Contribution for L=           1  read in
    real space projection operators read in
  non local Contribution for L=           1  read in
    real space projection operators read in
    PAW grid and wavefunctions read in
 
   number of l-projection  operators is LMAX  =           4
   number of lm-projection operators is LMMAX =           8
 
 Optimization of the real space projectors (new method)

 maximal supplied QI-value         = 14.36
 optimisation between [QCUT,QGAM] = [ 10.77, 21.69] = [ 32.49,131.70] Ry 
 Optimized for a Real-space Cutoff    1.46 Angstroem

   l    n(q)    QCUT    max X(q) W(low)/X(q) W(high)/X(q)  e(spline) 
   2      9    10.771    66.195    0.13E-03    0.31E-03    0.27E-06
   2      9    10.771    64.643    0.13E-03    0.32E-03    0.28E-06
   0     10    10.771    95.520    0.41E-04    0.13E-03    0.15E-06
   0     10    10.771    63.403    0.40E-04    0.12E-03    0.14E-06
   1      9    10.771    19.961    0.42E-03    0.19E-03    0.28E-06
   1      9    10.771    13.289    0.35E-03    0.16E-03    0.23E-06
 Optimization of the real space projectors (new method)

 maximal supplied QI-value         = 34.20
 optimisation between [QCUT,QGAM] = [ 10.60, 21.55] = [ 31.48,130.03] Ry 
 Optimized for a Real-space Cutoff    1.23 Angstroem

   l    n(q)    QCUT    max X(q) W(low)/X(q) W(high)/X(q)  e(spline) 
   0      8    10.603    19.460    0.37E-03    0.59E-03    0.23E-06
   0      8    10.603    12.209    0.35E-03    0.56E-03    0.22E-06
   1      7    10.603     4.655    0.70E-04    0.28E-03    0.29E-06
 Optimization of the real space projectors (new method)

 maximal supplied QI-value         = 25.13
 optimisation between [QCUT,QGAM] = [ 10.81, 21.61] = [ 32.71,130.83] Ry 
 Optimized for a Real-space Cutoff    1.23 Angstroem

   l    n(q)    QCUT    max X(q) W(low)/X(q) W(high)/X(q)  e(spline) 
   0      8    10.807   115.676    0.36E-03    0.72E-03    0.24E-06
   0      8    10.807    87.132    0.35E-03    0.71E-03    0.24E-06
   1      7    10.807     4.429    0.19E-03    0.39E-03    0.11E-06
   1      7    10.807     2.733    0.14E-03    0.28E-03    0.13E-06
  PAW_PBE Pt 04Feb2005                  :
 energy of atom  1       EATOM= -729.1176
 kinetic energy error for atom=    0.0051 (will be added to EATOM!!)
  PAW_PBE H 15Jun2001                   :
 energy of atom  2       EATOM=  -12.4884
 kinetic energy error for atom=    0.0045 (will be added to EATOM!!)
  PAW_PBE C 08Apr2002                   :
 energy of atom  3       EATOM= -147.1560
 kinetic energy error for atom=    0.0116 (will be added to EATOM!!)
 
 
 POSCAR: Pt  H  C                                
  positions in direct lattice
  velocities in cartesian coordinates
 exchange correlation table for  LEXCH =        8
   RHO(1)=    0.500       N(1)  =     2000
   RHO(2)=  100.500       N(2)  =     4000
 


--------------------------------------------------------------------------------------------------------


 ion  position               nearest neighbor table
   1  0.000  0.000  0.000-   2 2.81  57 2.81 101 2.81 156 2.81 102 2.81  56 2.81 114 2.81  68 2.81
                            13 2.81
   2  0.083  0.083  0.000- 102 2.81   1 2.81  57 2.81   7 2.81  13 2.81  14 2.81  15 2.81   4 2.81
                             3 2.81
   3  0.167  0.167  0.000-  10 2.81   5 2.81  17 2.81   8 2.81   4 2.81  19 2.81  15 2.81   7 2.81
                             2 2.81
   4  0.250  0.000  0.000-   5 2.81  60 2.81  16 2.81  59 2.81   3 2.81  15 2.81  71 2.81  57 2.81
                             2 2.81
   5  0.333  0.083  0.000-   3 2.81   4 2.81  97 2.81   6 2.81  60 2.81  10 2.81  18 2.81  16 2.81
                            17 2.81
   6  0.417  0.167  0.000- 103 2.81  98 2.81   5 2.81  10 2.81  11 2.81  97 2.81  22 2.81  18 2.81
                           110 2.81
   7  1.000  0.250  0.000- 102 2.81 107 2.81   2 2.81 108 2.81  14 2.81 120 2.81  19 2.81   8 2.81
                             3 2.81
   8  0.083  0.333  0.000-  49 2.81  10 2.81   9 2.81  21 2.81   3 2.81  19 2.81  20 2.81   7 2.81
                           108 2.81
   9  0.167  0.417  0.000-  50 2.81  49 2.81  52 2.81  11 2.81   8 2.81  61 2.81  10 2.81  23 2.81
                            21 2.81
  10  0.250  0.250  0.000-   3 2.81   8 2.81  11 2.81   6 2.81   9 2.81   5 2.81  22 2.81  21 2.81
                            17 2.81
  11  0.333  0.333  0.000-  52 2.81   9 2.81  10 2.81 103 2.81  12 2.81   6 2.81  22 2.81  23 2.81
                            24 2.81
  12  0.417  0.417  0.000-  53 2.81  52 2.81  64 2.81  11 2.81 103 2.81 145 2.81  24 2.81 116 2.81
                           104 2.81
  13  0.083  0.000  0.115-  26 2.77  81 2.77  25 2.77  68 2.81  71 2.81  15 2.81 114 2.81  69 2.81
                            14 2.81  57 2.81   2 2.81   1 2.81
  14  0.000  0.167  0.115- 131 2.77  25 2.77  27 2.77  15 2.81 118 2.81  19 2.81 114 2.81 120 2.81
                            13 2.81   7 2.81   2 2.81 102 2.81
  15  0.167  0.083  0.115-  28 2.77  26 2.77  27 2.77  14 2.81  16 2.81  13 2.81  17 2.81  71 2.81
                            19 2.81   2 2.81   4 2.81   3 2.81
  16  0.333  0.000  0.115-  84 2.77  29 2.77  28 2.77  71 2.81  15 2.81   4 2.81  72 2.81  17 2.81
                            60 2.81   5 2.81  18 2.81 164 2.81
  17  0.250  0.167  0.115-  30 2.77  28 2.77  32 2.77  19 2.81  15 2.81   3 2.81  21 2.81  16 2.81
                            10 2.81   5 2.81  18 2.81  22 2.81
  18  0.417  0.083  0.115- 121 2.77  29 2.77  30 2.77 109 2.81 110 2.81 164 2.81  22 2.81  97 2.81
                             6 2.81   5 2.81  17 2.81  16 2.81
  19  0.083  0.250  0.115-  32 2.77  31 2.77  27 2.77  14 2.81  17 2.81  21 2.81 120 2.81  20 2.81
                            15 2.81   7 2.81   8 2.81   3 2.81
  20  1.000  0.417  0.115- 173 2.77  33 2.77  31 2.78 162 2.81  61 2.81 160 2.81  21 2.81 120 2.81
                            49 2.81  19 2.81 108 2.81   8 2.81
  21  0.167  0.333  0.115-  33 2.77  32 2.77  34 2.78  61 2.81  20 2.81  19 2.81   8 2.81  17 2.81
                            10 2.81   9 2.81  22 2.81  23 2.81
  22  0.333  0.250  0.115-  30 2.77  34 2.77  35 2.78  24 2.81 110 2.81  23 2.81  18 2.81  11 2.81
                             6 2.81  10 2.81  17 2.81  21 2.81
  23  0.250  0.417  0.115-  36 2.77  74 2.77  34 2.77  63 2.81  64 2.81  52 2.81  24 2.81  22 2.81
                            61 2.81  11 2.81   9 2.81  21 2.81
  24  0.417  0.333  0.115-  36 2.77  35 2.77 127 2.78  64 2.81 116 2.81  22 2.81 115 2.81  23 2.81
                           110 2.81 103 2.81  12 2.81  11 2.81
  25  0.000  0.083  0.227-  13 2.77  14 2.77 114 2.77  26 2.80 126 2.80  81 2.80 125 2.80  27 2.80
                            37 2.80 131 2.81  38 2.81 138 2.81
  26  0.167  0.000  0.227-  13 2.77  15 2.77  71 2.77  25 2.80  81 2.80  27 2.80  93 2.80  84 2.80
                            28 2.81  82 2.81  40 2.81  38 2.81
  27  0.083  0.167  0.227-  14 2.77  15 2.77  19 2.77  31 2.80 131 2.80  28 2.80  25 2.80  26 2.80
                            39 2.80  38 2.81  43 2.81  32 2.81
  28  0.250  0.083  0.227-  15 2.77  17 2.77  16 2.77  27 2.80  41 2.80  26 2.81  32 2.81  84 2.81
                            39 2.81  40 2.81  30 2.81  29 2.81
  29  0.417  0.000  0.227-  18 2.77  16 2.77 164 2.77  30 2.80 133 2.80  41 2.80 175 2.80  96 2.81
                           121 2.81 177 2.81  28 2.81  84 2.81
  30  0.333  0.167  0.227-  17 2.77  22 2.77  18 2.77  42 2.80  29 2.80  46 2.81  34 2.81  32 2.81
                            41 2.81  28 2.81  35 2.81 121 2.81
  31  0.000  0.333  0.227-  19 2.77 120 2.78  20 2.78  32 2.80  27 2.80 131 2.80  33 2.80 132 2.80
                           144 2.80  43 2.80 173 2.81  44 2.81
  32  0.167  0.250  0.227-  19 2.77  21 2.77  17 2.77  33 2.80  31 2.80  46 2.80  28 2.81  30 2.81
                            27 2.81  44 2.81  39 2.81  34 2.81
  33  0.083  0.416  0.227-  20 2.77  21 2.77  61 2.77  32 2.80  45 2.80 173 2.80  31 2.80  74 2.81
                            85 2.81  44 2.81  73 2.81  34 2.81
  34  0.250  0.333  0.227-  23 2.77  22 2.77  21 2.78  36 2.80  47 2.80  35 2.80  30 2.81  74 2.81
                            46 2.81  45 2.81  33 2.81  32 2.81
  35  0.417  0.250  0.227-  24 2.77  22 2.78 110 2.78  36 2.80 139 2.80  34 2.80  42 2.81 127 2.81
                           121 2.81  30 2.81 123 2.81  47 2.81
  36  0.333  0.417  0.227-  23 2.77  24 2.77  64 2.77  34 2.80  35 2.80  48 2.80  77 2.80  74 2.81
                            88 2.81 127 2.81  47 2.81  76 2.81
  37  0.000  0.000  0.342- 125 2.80  25 2.80  81 2.80  38 2.80 138 2.81 192 2.81  92 2.81  93 2.81
                           137 2.81
  38  0.083  0.083  0.342-  40 2.80  43 2.80  37 2.80  39 2.80  27 2.81  93 2.81  25 2.81  26 2.81
                           138 2.81
  39  0.167  0.167  0.342-  46 2.80  41 2.80  43 2.80  44 2.80  27 2.80  38 2.80  40 2.81  28 2.81
                            32 2.81
  40  0.250  0.000  0.342-  96 2.80  41 2.80  93 2.80  38 2.80  84 2.81  26 2.81  39 2.81  95 2.81
                            28 2.81
  41  0.333  0.083  0.342-  96 2.80  42 2.80  46 2.80  40 2.80  39 2.80  29 2.80  28 2.80  30 2.81
                           133 2.81
  42  0.417  0.166  0.341- 133 2.79 121 2.80  30 2.80  41 2.80 134 2.80  35 2.81  46 2.81 139 2.82
                            47 2.82
  43  0.000  0.250  0.342-  39 2.80  31 2.80 143 2.80  38 2.80 138 2.81 144 2.81  44 2.81  27 2.81
                           131 2.81
  44  0.083  0.333  0.342-  46 2.80  39 2.80 144 2.80  45 2.80  43 2.81  31 2.81  85 2.81  32 2.81
                            33 2.81
  45  0.166  0.417  0.341-  85 2.80  33 2.80  86 2.80  44 2.80  47 2.80  74 2.81  34 2.81  88 2.81
                            46 2.81
  46  0.250  0.250  0.342-  39 2.80  44 2.80  41 2.80  32 2.80  30 2.81  47 2.81  34 2.81  42 2.81
                            45 2.81
  47  0.333  0.334  0.342- 214 2.16  34 2.80  45 2.80  46 2.81  35 2.81  36 2.81  48 2.81  88 2.82
                            42 2.82 139 2.83
  48  0.416  0.417  0.341- 127 2.80  36 2.80  77 2.80  89 2.81 181 2.81  47 2.81  88 2.81 140 2.82
                           139 2.82
  49  0.000  0.500  0.000-   8 2.81   9 2.81  50 2.81  61 2.81  20 2.81 150 2.81 108 2.81 162 2.81
                           149 2.81
  50  0.083  0.583  0.000-   9 2.81 150 2.81  52 2.81  49 2.81  51 2.81  55 2.81  63 2.81  61 2.81
                            62 2.81
  51  0.167  0.667  0.000-  58 2.81  53 2.81  55 2.81  50 2.81  56 2.81  52 2.81  67 2.81  63 2.81
                            65 2.81
  52  0.250  0.500  0.000-  11 2.81   9 2.81  12 2.81  23 2.81  50 2.81  53 2.81  51 2.81  63 2.81
                            64 2.81
  53  0.333  0.583  0.000-  12 2.81  51 2.81  52 2.81  58 2.81  64 2.81  65 2.81  66 2.81 145 2.81
                            54 2.81
  54  0.417  0.667  0.000- 151 2.81 146 2.81 158 2.81  59 2.81 145 2.81  70 2.81  66 2.81  58 2.81
                            53 2.81
  55  0.000  0.750  0.000- 150 2.81  56 2.81 155 2.81  51 2.81  50 2.81 156 2.81  67 2.81  62 2.81
                           168 2.81
  56  0.083  0.833  0.000- 156 2.81  58 2.81  55 2.81  57 2.81  51 2.81   1 2.81  67 2.81  68 2.81
                            69 2.81
  57  0.167  0.917  0.000-   1 2.81  56 2.81   2 2.81  58 2.81  13 2.81  69 2.81  71 2.81  59 2.81
                             4 2.81
  58  0.250  0.750  0.000-  51 2.81  56 2.81  53 2.81  57 2.81  65 2.81  69 2.81  70 2.81  59 2.81
                            54 2.81
  59  0.333  0.833  0.000- 151 2.81  60 2.81  72 2.81  54 2.81   4 2.81  70 2.81  71 2.81  57 2.81
                            58 2.81
  60  0.417  0.917  0.000- 152 2.81  97 2.81   4 2.81  59 2.81   5 2.81 151 2.81 164 2.81  16 2.81
                            72 2.81
  61  0.083  0.500  0.115-  74 2.77  73 2.77  33 2.77  21 2.81  20 2.81 162 2.81  49 2.81   9 2.81
                            62 2.81  23 2.81  50 2.81  63 2.81
  62  1.000  0.667  0.115-  73 2.77 179 2.77  75 2.77 166 2.81 162 2.81 150 2.81 168 2.81  61 2.81
                            55 2.81  50 2.81  63 2.81  67 2.81
  63  0.167  0.583  0.115-  76 2.77  74 2.77  75 2.77  23 2.81  64 2.81  65 2.81  67 2.81  52 2.81
                            51 2.81  50 2.81  62 2.81  61 2.81
  64  0.333  0.500  0.115-  77 2.76  36 2.77  76 2.77  24 2.81  23 2.81 116 2.81  12 2.81  66 2.81
                            63 2.81  65 2.81  53 2.81  52 2.81
  65  0.250  0.667  0.115-  76 2.77  78 2.77  80 2.77  66 2.81  70 2.81  67 2.81  63 2.81  69 2.81
                            64 2.81  58 2.81  53 2.81  51 2.81
  66  0.417  0.583  0.115-  77 2.77 169 2.77  78 2.77 116 2.81  65 2.81 157 2.81  64 2.81 158 2.81
                            70 2.81  53 2.81 145 2.81  54 2.81
  67  0.083  0.750  0.115-  75 2.77  80 2.77  79 2.77  69 2.81  65 2.81  63 2.81  68 2.81  56 2.81
                            51 2.81  55 2.81  62 2.81 168 2.81
  68  0.000  0.917  0.115-  79 2.77  81 2.77 125 2.77  13 2.81  69 2.81 114 2.81  67 2.81   1 2.81
                            56 2.81 156 2.81 112 2.81 168 2.81
  69  0.167  0.833  0.115-  80 2.77  82 2.77  81 2.77  71 2.81  67 2.81  70 2.81  68 2.81  65 2.81
                            13 2.81  58 2.81  57 2.81  56 2.81
  70  0.333  0.750  0.115-  78 2.77  82 2.77  83 2.77  65 2.81  69 2.81  72 2.81 158 2.81  71 2.81
                            66 2.81  58 2.81  59 2.81  54 2.81
  71  0.250  0.917  0.115-  82 2.77  84 2.77  26 2.77  69 2.81  13 2.81  16 2.81  72 2.81  15 2.81
                            70 2.81  57 2.81   4 2.81  59 2.81
  72  0.417  0.833  0.115-  83 2.77 175 2.77  84 2.77  70 2.81  71 2.81  59 2.81 158 2.81  16 2.81
                           151 2.81  60 2.81 164 2.81 163 2.81
  73  1.000  0.583  0.227- 162 2.77  61 2.77  62 2.77 174 2.80  74 2.80 186 2.80  85 2.81 173 2.81
                            86 2.81  33 2.81 179 2.81  75 2.81
  74  0.166  0.500  0.227-  61 2.77  63 2.77  23 2.77  88 2.80  73 2.80  45 2.81  33 2.81  34 2.81
                            36 2.81  75 2.81  86 2.81  76 2.81
  75  0.083  0.667  0.227-  67 2.77  62 2.77  63 2.77  76 2.80 179 2.80  79 2.80  86 2.81  91 2.81
                            80 2.81  87 2.81  74 2.81  73 2.81
  76  0.250  0.584  0.227-  65 2.77  63 2.77  64 2.77  88 2.79  75 2.80  80 2.80  77 2.80  89 2.81
                            78 2.81  87 2.81  74 2.81  36 2.81
  77  0.416  0.500  0.227-  64 2.76  66 2.77 116 2.77 181 2.79  76 2.80  48 2.80  36 2.80 127 2.81
                            78 2.81  89 2.81 169 2.82 129 2.82
  78  0.333  0.667  0.227-  70 2.77  66 2.77  65 2.77  89 2.80  82 2.80 169 2.80  83 2.81  90 2.81
                            80 2.81  77 2.81  94 2.81  76 2.81
  79  1.000  0.833  0.227-  68 2.77 168 2.77  67 2.77 180 2.80 179 2.80 192 2.80 125 2.80  75 2.80
                            92 2.81  81 2.81  80 2.81  91 2.81
  80  0.167  0.750  0.227-  69 2.77  67 2.77  65 2.77  76 2.80  81 2.80  92 2.80  82 2.81  94 2.81
                            79 2.81  87 2.81  75 2.81  78 2.81
  81  0.083  0.917  0.227-  13 2.77  68 2.77  69 2.77 125 2.80  25 2.80  26 2.80  80 2.80  37 2.80
                            79 2.81  93 2.81  92 2.81  82 2.81
  82  0.250  0.833  0.227-  71 2.77  70 2.77  69 2.77  78 2.80  84 2.80  80 2.81  95 2.81  26 2.81
                            93 2.81  94 2.81  83 2.81  81 2.81
  83  0.417  0.750  0.227-  72 2.77 158 2.77  70 2.77 175 2.80 187 2.80  84 2.80 169 2.80  78 2.81
                           171 2.81  82 2.81  95 2.81  90 2.81
  84  0.333  0.917  0.227-  71 2.77  16 2.77  72 2.77  82 2.80  83 2.80  96 2.80  26 2.80  40 2.81
                            28 2.81 175 2.81  95 2.81  29 2.81
  85  0.000  0.500  0.342- 185 2.80  45 2.80 144 2.80  73 2.81  33 2.81  86 2.81 186 2.81  44 2.81
                           173 2.81
  86  0.083  0.584  0.342-  88 2.79 186 2.80  45 2.80  91 2.80  75 2.81  85 2.81  73 2.81  74 2.81
                            87 2.81
  87  0.167  0.667  0.342-  88 2.80  92 2.80  94 2.80  91 2.80  89 2.80  80 2.81  75 2.81  86 2.81
                            76 2.81
  88  0.249  0.501  0.341-  86 2.79  76 2.79  87 2.80  74 2.80  36 2.81  45 2.81  89 2.81  48 2.81
                            47 2.82
  89  0.333  0.584  0.341-  94 2.80  78 2.80  90 2.80  87 2.80  76 2.81  48 2.81  88 2.81  77 2.81
                           181 2.81
  90  0.417  0.667  0.342-  89 2.80 187 2.80  95 2.81  78 2.81 181 2.81  94 2.81  83 2.81 169 2.81
                           182 2.82
  91  1.000  0.750  0.342- 186 2.80 191 2.80  87 2.80  86 2.80 192 2.80  92 2.81  75 2.81 179 2.81
                            79 2.81
  92  0.083  0.833  0.342-  87 2.80  94 2.80  80 2.80  79 2.81 192 2.81  91 2.81  81 2.81  37 2.81
                            93 2.81
  93  0.167  0.917  0.342-  95 2.80  94 2.80  40 2.80  26 2.80  38 2.81  81 2.81  82 2.81  37 2.81
                            92 2.81
  94  0.250  0.750  0.342-  89 2.80  87 2.80  93 2.80  92 2.80  95 2.80  80 2.81  82 2.81  90 2.81
                            78 2.81
  95  0.333  0.833  0.342- 187 2.80  93 2.80  94 2.80  96 2.80  90 2.81  82 2.81  40 2.81  84 2.81
                            83 2.81
  96  0.416  0.917  0.342-  40 2.80  41 2.80 187 2.80  84 2.80  95 2.80 188 2.81  29 2.81 133 2.81
                           175 2.81
  97  0.500  0.000  0.000-   5 2.81  60 2.81  98 2.81 153 2.81 152 2.81   6 2.81  18 2.81 164 2.81
                           109 2.81
  98  0.583  0.083  0.000-   6 2.81  97 2.81 153 2.81 103 2.81 109 2.81 110 2.81 111 2.81 100 2.81
                            99 2.81
  99  0.667  0.167  0.000- 106 2.81 101 2.81 113 2.81 104 2.81 100 2.81 115 2.81 111 2.81 103 2.81
                            98 2.81
 100  0.750  0.000  0.000- 101 2.81 156 2.81 112 2.81 155 2.81  99 2.81 111 2.81 167 2.81 153 2.81
                            98 2.81
 101  0.833  0.083  0.000-  99 2.81   1 2.81 100 2.81 102 2.81 156 2.81 106 2.81 114 2.81 112 2.81
                           113 2.81
 102  0.917  0.167  0.000-   2 2.81   7 2.81 101 2.81 106 2.81 107 2.81   1 2.81 118 2.81 114 2.81
                            14 2.81
 103  0.500  0.250  0.000-   6 2.81  11 2.81  12 2.81  98 2.81  24 2.81 110 2.81 115 2.81 104 2.81
                            99 2.81
 104  0.583  0.333  0.000- 145 2.81 106 2.81 105 2.81 117 2.81  99 2.81 115 2.81 116 2.81  12 2.81
                           103 2.81
 105  0.667  0.417  0.000- 146 2.81 145 2.81 148 2.81 107 2.81 104 2.81 157 2.81 106 2.81 119 2.81
                           117 2.81
 106  0.750  0.250  0.000-  99 2.81 104 2.81 107 2.81 102 2.81 105 2.81 101 2.81 118 2.81 117 2.81
                           113 2.81
 107  0.833  0.333  0.000- 148 2.81 105 2.81 106 2.81 108 2.81   7 2.81 102 2.81 118 2.81 119 2.81
                           120 2.81
 108  0.917  0.417  0.000- 149 2.81 148 2.81 160 2.81 107 2.81   7 2.81  49 2.81 120 2.81  20 2.81
                             8 2.81
 109  0.583  0.000  0.115- 177 2.76 121 2.77 122 2.77 111 2.81 164 2.81 167 2.81  18 2.81 110 2.81
                           165 2.81  98 2.81 153 2.81  97 2.81
 110  0.500  0.167  0.115- 121 2.77 123 2.77  35 2.78 111 2.81  22 2.81 115 2.81  18 2.81  24 2.81
                           109 2.81 103 2.81  98 2.81   6 2.81
 111  0.667  0.083  0.115- 122 2.77 123 2.77 124 2.78 110 2.81 112 2.81 109 2.81 113 2.81 167 2.81
                           115 2.81  98 2.81 100 2.81  99 2.81
 112  0.833  0.000  0.115- 180 2.77 124 2.77 125 2.78 167 2.81 111 2.81 100 2.81 168 2.81 113 2.81
                           156 2.81 101 2.81  68 2.81 114 2.81
 113  0.750  0.167  0.115- 128 2.77 124 2.77 126 2.78 115 2.81 111 2.81  99 2.81 117 2.81 112 2.81
                           106 2.81 101 2.81 114 2.81 118 2.81
 114  0.917  0.083  0.115- 125 2.77 126 2.77  25 2.77  13 2.81  14 2.81  68 2.81 118 2.81   1 2.81
                           102 2.81 101 2.81 113 2.81 112 2.81
 115  0.583  0.250  0.115- 123 2.77 128 2.77 127 2.78 117 2.81  24 2.81 110 2.81 113 2.81 111 2.81
                           116 2.81 103 2.81 104 2.81  99 2.81
 116  0.500  0.417  0.115-  77 2.77 129 2.77 127 2.77  66 2.81  64 2.81 157 2.81  24 2.81 117 2.81
                           145 2.81 115 2.81  12 2.81 104 2.81
 117  0.667  0.333  0.115- 129 2.76 128 2.77 130 2.78 157 2.81 115 2.81 116 2.81 104 2.81 113 2.81
                           106 2.81 105 2.81 118 2.81 119 2.81
 118  0.833  0.250  0.115- 130 2.77 126 2.77 131 2.77 120 2.81  14 2.81 114 2.81 119 2.81 107 2.81
                           102 2.81 106 2.81 117 2.81 113 2.81
 119  0.750  0.417  0.115- 170 2.77 130 2.77 132 2.77 159 2.81 160 2.81 148 2.81 120 2.81 118 2.81
                           157 2.81 107 2.81 105 2.81 117 2.81
 120  0.917  0.333  0.115- 132 2.77 131 2.77  31 2.78 160 2.81 118 2.81  19 2.81 119 2.81  20 2.81
                            14 2.81   7 2.81 108 2.81 107 2.81
 121  0.500  0.083  0.227- 110 2.77 109 2.77  18 2.77  42 2.80 177 2.80 123 2.81  29 2.81 122 2.81
                            35 2.81 134 2.81  30 2.81 133 2.81
 122  0.667  0.000  0.227- 111 2.77 167 2.77 109 2.77 123 2.80 189 2.80 178 2.80 180 2.80 136 2.80
                           124 2.80 177 2.81 134 2.81 121 2.81
 123  0.584  0.167  0.227- 111 2.77 115 2.77 110 2.77 139 2.80 122 2.80 128 2.80 121 2.81 124 2.81
                           135 2.81 134 2.81 127 2.81  35 2.81
 124  0.750  0.083  0.227- 113 2.77 112 2.77 111 2.78 128 2.80 180 2.80 125 2.80 126 2.80 122 2.80
                           137 2.80 136 2.81 135 2.81 123 2.81
 125  0.917  0.000  0.227- 114 2.77  68 2.77 112 2.78  81 2.80 126 2.80 124 2.80  25 2.80  37 2.80
                            79 2.80 180 2.80 192 2.81 137 2.81
 126  0.834  0.167  0.227- 114 2.77 118 2.77 113 2.78  25 2.80 125 2.80 130 2.80 138 2.80 131 2.80
                           124 2.80 128 2.81 137 2.81 142 2.81
 127  0.500  0.333  0.227- 116 2.77 115 2.78  24 2.78 139 2.80  48 2.80 129 2.80  77 2.81  35 2.81
                           140 2.81 123 2.81 128 2.81  36 2.81
 128  0.667  0.250  0.227- 113 2.77 117 2.77 115 2.77 124 2.80 129 2.80 123 2.80 135 2.81 126 2.81
                           142 2.81 130 2.81 140 2.81 127 2.81
 129  0.584  0.416  0.227- 117 2.76 157 2.77 116 2.77 181 2.79 127 2.80 128 2.80 130 2.81 170 2.81
                           141 2.81 140 2.81 169 2.82  77 2.82
 130  0.750  0.333  0.227- 118 2.77 119 2.77 117 2.78 131 2.80 126 2.80 143 2.80 132 2.80 129 2.81
                           141 2.81 142 2.81 170 2.81 128 2.81
 131  0.917  0.250  0.227-  14 2.77 120 2.77 118 2.77 130 2.80  27 2.80  31 2.80 126 2.80  25 2.81
                           132 2.81 143 2.81  43 2.81 138 2.81
 132  0.834  0.417  0.227- 120 2.77 160 2.77 119 2.77 184 2.80 173 2.80  31 2.80 130 2.80 131 2.81
                           170 2.81 144 2.81 143 2.81 172 2.81
 133  0.500  0.000  0.342- 188 2.79  42 2.79  29 2.80  96 2.81 134 2.81  41 2.81 177 2.81 121 2.81
                           189 2.81
 134  0.583  0.083  0.342- 139 2.80 189 2.80  42 2.80 136 2.80 135 2.81 122 2.81 133 2.81 121 2.81
                           123 2.81
 135  0.667  0.167  0.342- 139 2.80 136 2.80 140 2.80 137 2.80 128 2.81 134 2.81 142 2.81 124 2.81
                           123 2.81
 136  0.750  0.000  0.342- 189 2.80 135 2.80 134 2.80 122 2.80 191 2.80 180 2.80 137 2.81 124 2.81
                           192 2.81
 137  0.833  0.083  0.342- 124 2.80 135 2.80 142 2.80 138 2.81 136 2.81 192 2.81 126 2.81 125 2.81
                            37 2.81
 138  0.917  0.167  0.342- 126 2.80 142 2.80 143 2.80  37 2.81 137 2.81  43 2.81  38 2.81 131 2.81
                            25 2.81
 139  0.501  0.250  0.341- 135 2.80 123 2.80 134 2.80 127 2.80  35 2.80 140 2.81  42 2.82  48 2.82
                            47 2.83
 140  0.584  0.333  0.342- 142 2.80 141 2.80 135 2.80 127 2.81 139 2.81 128 2.81 181 2.81 129 2.81
                            48 2.82
 141  0.667  0.417  0.342- 140 2.80 182 2.80 142 2.80 143 2.81 181 2.81 130 2.81 184 2.81 129 2.81
                           170 2.81
 142  0.750  0.250  0.342- 140 2.80 141 2.80 138 2.80 137 2.80 143 2.81 135 2.81 126 2.81 128 2.81
                           130 2.81
 143  0.833  0.333  0.342- 184 2.80  43 2.80 138 2.80 130 2.80 141 2.81 131 2.81 142 2.81 144 2.81
                           132 2.81
 144  0.917  0.417  0.342- 184 2.80  44 2.80  31 2.80  85 2.80 185 2.81  43 2.81 143 2.81 173 2.81
                           132 2.81
 145  0.500  0.500  0.000- 104 2.81 105 2.81 146 2.81 157 2.81 116 2.81  54 2.81  12 2.81  66 2.81
                            53 2.81
 146  0.583  0.583  0.000- 105 2.81  54 2.81 145 2.81 148 2.81 147 2.81 151 2.81 159 2.81 157 2.81
                           158 2.81
 147  0.667  0.667  0.000- 154 2.81 149 2.81 151 2.81 146 2.81 152 2.81 148 2.81 163 2.81 159 2.81
                           161 2.81
 148  0.750  0.500  0.000- 107 2.81 105 2.81 108 2.81 119 2.81 146 2.81 149 2.81 147 2.81 159 2.81
                           160 2.81
 149  0.833  0.583  0.000- 108 2.81 147 2.81 148 2.81 154 2.81 160 2.81 161 2.81 162 2.81  49 2.81
                           150 2.81
 150  0.917  0.667  0.000-  55 2.81  50 2.81  62 2.81 155 2.81  49 2.81 166 2.81 162 2.81 154 2.81
                           149 2.81
 151  0.500  0.750  0.000-  54 2.81  59 2.81 152 2.81 147 2.81  60 2.81 146 2.81 163 2.81 158 2.81
                            72 2.81
 152  0.583  0.833  0.000-  60 2.81 151 2.81 154 2.81 153 2.81 147 2.81  97 2.81 163 2.81 164 2.81
                           165 2.81
 153  0.667  0.917  0.000-  97 2.81 152 2.81  98 2.81 154 2.81 109 2.81 165 2.81 167 2.81 155 2.81
                           100 2.81
 154  0.750  0.750  0.000- 147 2.81 152 2.81 149 2.81 153 2.81 161 2.81 165 2.81 166 2.81 155 2.81
                           150 2.81
 155  0.833  0.833  0.000-  55 2.81 156 2.81 168 2.81 150 2.81 100 2.81 166 2.81 167 2.81 153 2.81
                           154 2.81
 156  0.917  0.917  0.000-  56 2.81   1 2.81 100 2.81 155 2.81 101 2.81  55 2.81  68 2.81 112 2.81
                           168 2.81
 157  0.583  0.500  0.115- 169 2.77 129 2.77 170 2.77 117 2.81 116 2.81  66 2.81 145 2.81 105 2.81
                           158 2.81 119 2.81 146 2.81 159 2.81
 158  0.500  0.667  0.115- 169 2.76  83 2.77 171 2.77  70 2.81  66 2.81  54 2.81  72 2.81 157 2.81
                           151 2.81 146 2.81 159 2.81 163 2.81
 159  0.667  0.583  0.115- 170 2.77 172 2.77 171 2.77 119 2.81 160 2.81 161 2.81 163 2.81 148 2.81
                           147 2.81 146 2.81 158 2.81 157 2.81
 160  0.833  0.500  0.115- 173 2.77 132 2.77 172 2.77 120 2.81 119 2.81  20 2.81 108 2.81 159 2.81
                           162 2.81 161 2.81 149 2.81 148 2.81
 161  0.750  0.667  0.115- 172 2.77 176 2.77 174 2.77 162 2.81 166 2.81 163 2.81 159 2.81 165 2.81
                           160 2.81 154 2.81 149 2.81 147 2.81
 162  0.917  0.583  0.115- 174 2.77  73 2.77 173 2.77  20 2.81 161 2.81 160 2.81  61 2.81  62 2.81
                           166 2.81 149 2.81  49 2.81 150 2.81
 163  0.583  0.750  0.115- 171 2.77 176 2.77 175 2.77 165 2.81 161 2.81 159 2.81 164 2.81 152 2.81
                           147 2.81 151 2.81 158 2.81  72 2.81
 164  0.500  0.917  0.115- 175 2.77 177 2.77  29 2.77 109 2.81 165 2.81  18 2.81 163 2.81  97 2.81
                           152 2.81  60 2.81  72 2.81  16 2.81
 165  0.667  0.833  0.115- 176 2.77 177 2.77 178 2.77 167 2.81 163 2.81 166 2.81 164 2.81 161 2.81
                           109 2.81 154 2.81 153 2.81 152 2.81
 166  0.833  0.750  0.115- 174 2.77 178 2.77 179 2.77 168 2.81  62 2.81 161 2.81 165 2.81 162 2.81
                           167 2.81 154 2.81 155 2.81 150 2.81
 167  0.750  0.917  0.115- 178 2.77 122 2.77 180 2.77 165 2.81 109 2.81 112 2.81 168 2.81 111 2.81
                           166 2.81 153 2.81 100 2.81 155 2.81
 168  0.917  0.833  0.115- 179 2.77 180 2.77  79 2.77 166 2.81 167 2.81 155 2.81  62 2.81 112 2.81
                            55 2.81 156 2.81  67 2.81  68 2.81
 169  0.500  0.584  0.227- 158 2.76  66 2.77 157 2.77 181 2.79 182 2.80  78 2.80  83 2.80 171 2.81
                           170 2.81  90 2.81  77 2.82 129 2.82
 170  0.667  0.500  0.227- 119 2.77 159 2.77 157 2.77 182 2.79 132 2.81 172 2.81 130 2.81 129 2.81
                           184 2.81 169 2.81 141 2.81 171 2.81
 171  0.583  0.667  0.227- 163 2.77 159 2.77 158 2.77 182 2.80 176 2.80 175 2.80 172 2.80  83 2.81
                           169 2.81 187 2.81 183 2.81 170 2.81
 172  0.750  0.583  0.227- 161 2.77 160 2.77 159 2.77 183 2.80 171 2.80 174 2.81 170 2.81 176 2.81
                           184 2.81 173 2.81 185 2.81 132 2.81
 173  0.917  0.500  0.227-  20 2.77 160 2.77 162 2.77 132 2.80 185 2.80  33 2.80  31 2.81  73 2.81
                           144 2.81  85 2.81 172 2.81 174 2.81
 174  0.834  0.667  0.227- 162 2.77 166 2.77 161 2.77 190 2.80  73 2.80 185 2.80 172 2.81 179 2.81
                           186 2.81 173 2.81 176 2.81 178 2.81
 175  0.500  0.834  0.227- 164 2.77  72 2.77 163 2.77 188 2.80  83 2.80 171 2.80  29 2.80  84 2.81
                           187 2.81 176 2.81 177 2.81  96 2.81
 176  0.667  0.750  0.227- 165 2.77 161 2.77 163 2.77 171 2.80 190 2.80 188 2.80 183 2.81 172 2.81
                           177 2.81 178 2.81 175 2.81 174 2.81
 177  0.583  0.917  0.227- 109 2.76 164 2.77 165 2.77 188 2.80 121 2.80 122 2.81  29 2.81 176 2.81
                           178 2.81 189 2.81 175 2.81 133 2.81
 178  0.750  0.834  0.227- 167 2.77 166 2.77 165 2.77 190 2.80 180 2.80 189 2.80 122 2.80 179 2.81
                           176 2.81 191 2.81 177 2.81 174 2.81
 179  0.917  0.750  0.227- 168 2.77  62 2.77 166 2.77  75 2.80  79 2.80 191 2.80 186 2.80 178 2.81
                           174 2.81 180 2.81  91 2.81  73 2.81
 180  0.833  0.917  0.227- 112 2.77 168 2.77 167 2.77 124 2.80 178 2.80  79 2.80 122 2.80 191 2.80
                           136 2.80 125 2.80 192 2.81 179 2.81
 181  0.500  0.500  0.340- 129 2.79 169 2.79  77 2.79 141 2.81  48 2.81  90 2.81 140 2.81 182 2.81
                            89 2.81
 182  0.584  0.583  0.341- 170 2.79 171 2.80 184 2.80 141 2.80 169 2.80 181 2.81 183 2.81  90 2.82
                           187 2.82
 183  0.668  0.666  0.341- 172 2.80 185 2.80 176 2.81 190 2.81 184 2.81 171 2.81 182 2.81 188 2.82
                           187 2.83
 184  0.750  0.500  0.341- 143 2.80 132 2.80 144 2.80 182 2.80 141 2.81 172 2.81 170 2.81 183 2.81
                           185 2.81
 185  0.834  0.583  0.341-  85 2.80 183 2.80 173 2.80 186 2.80 174 2.80 144 2.81 172 2.81 190 2.81
                           184 2.81
 186  0.917  0.667  0.342-  86 2.80  91 2.80 190 2.80 185 2.80  73 2.80 179 2.80  85 2.81 191 2.81
                           174 2.81
 187  0.500  0.750  0.342-  95 2.80  90 2.80  83 2.80  96 2.80 175 2.81 171 2.81 188 2.81 182 2.82
                           183 2.83
 188  0.583  0.834  0.341- 133 2.79 177 2.80 175 2.80 189 2.80 176 2.80  96 2.81 187 2.81 190 2.82
                           183 2.82
 189  0.667  0.917  0.341- 136 2.80 134 2.80 122 2.80 188 2.80 178 2.80 191 2.81 190 2.81 177 2.81
                           133 2.81
 190  0.750  0.750  0.341- 178 2.80 191 2.80 174 2.80 186 2.80 176 2.80 189 2.81 183 2.81 185 2.81
                           188 2.82
 191  0.833  0.833  0.342- 190 2.80 192 2.80  91 2.80 180 2.80 136 2.80 179 2.80 189 2.81 186 2.81
                           178 2.81
 192  0.917  0.917  0.342- 191 2.80  79 2.80  91 2.80  92 2.81 180 2.81 125 2.81 137 2.81  37 2.81
                           136 2.81
 193  0.597  0.828  0.553- 219 1.10
 194  0.580  0.835  0.466- 219 1.11
 195  0.678  0.801  0.497- 219 1.10
 196  0.682  0.678  0.542- 220 1.10
 197  0.667  0.686  0.455- 220 1.12
 198  0.522  0.741  0.469- 221 1.11
 199  0.532  0.738  0.557- 221 1.11
 200  0.624  0.589  0.550- 222 1.11
 201  0.613  0.594  0.463- 222 1.11
 202  0.469  0.641  0.472- 223 1.11
 203  0.475  0.642  0.561- 223 1.10
 204  0.568  0.495  0.561- 224 1.11
 205  0.572  0.494  0.473- 224 1.11
 206  0.429  0.536  0.466- 225 1.11
 207  0.419  0.543  0.553- 225 1.10
 208  0.512  0.399  0.566- 226 1.10
 209  0.533  0.389  0.479- 226 1.11
 210  0.396  0.427  0.451- 227 1.13
 211  0.365  0.449  0.535- 227 1.10
 212  0.460  0.303  0.564- 228 1.11
 213  0.484  0.284  0.478- 228 1.11
 214  0.343  0.331  0.450- 229 1.13  47 2.16
 215  0.315  0.352  0.534- 229 1.10
 216  0.433  0.186  0.478- 230 1.11
 217  0.332  0.219  0.499- 230 1.10
 218  0.403  0.205  0.563- 230 1.10
 219  0.623  0.799  0.505- 195 1.10 193 1.10 194 1.11 220 1.52
 220  0.638  0.714  0.504- 196 1.10 197 1.12 219 1.52 221 1.52
 221  0.564  0.708  0.511- 199 1.11 198 1.11 222 1.52 220 1.52
 222  0.582  0.622  0.510- 200 1.11 201 1.11 221 1.52 223 1.53
 223  0.509  0.612  0.515- 203 1.10 202 1.11 222 1.53 224 1.53
 224  0.532  0.524  0.516- 204 1.11 205 1.11 225 1.52 223 1.53
 225  0.462  0.510  0.513- 207 1.10 206 1.11 224 1.52 226 1.53
 226  0.486  0.423  0.517- 208 1.10 209 1.11 227 1.52 225 1.53
 227  0.417  0.408  0.504- 211 1.10 210 1.13 228 1.52 226 1.52
 228  0.436  0.323  0.513- 212 1.11 213 1.11 229 1.52 227 1.52
 229  0.365  0.311  0.502- 215 1.10 214 1.13 230 1.52 228 1.52
 230  0.384  0.226  0.511- 217 1.10 218 1.10 216 1.11 229 1.52
 
  LATTYP: Found a hexagonal cell.
 ALAT       =    19.4393438986
 C/A-ratio  =     1.0288413078
  
  Lattice vectors:
  
 A1 = (   9.7196719493, -16.8349656491,   0.0000000000)
 A2 = ( -19.4393438986,   0.0000000000,   0.0000000000)
 A3 = (   0.0000000000,   0.0000000000, -20.0000000000)


Analysis of symmetry for initial positions (statically):
=====================================================================
 Subroutine PRICEL returns:
 Original cell was already a primitive cell.
 

 Routine SETGRP: Setting up the symmetry group for a 
 hexagonal supercell.


 Subroutine GETGRP returns: Found  1 space group operations
 (whereof  1 operations were pure point group operations)
 out of a pool of 24 trial point group operations.


The static configuration has the point symmetry C_1 .


Analysis of symmetry for dynamics (positions and initial velocities):
=====================================================================
 Subroutine PRICEL returns:
 Original cell was already a primitive cell.
 

 Routine SETGRP: Setting up the symmetry group for a 
 hexagonal supercell.


 Subroutine GETGRP returns: Found  1 space group operations
 (whereof  1 operations were pure point group operations)
 out of a pool of 24 trial point group operations.


The dynamic configuration has the point symmetry C_1 .


Analysis of constrained symmetry for selective dynamics:
=====================================================================
 Subroutine PRICEL returns:
 Original cell was already a primitive cell.
 

 Routine SETGRP: Setting up the symmetry group for a 
 hexagonal supercell.


 Subroutine GETGRP returns: Found  1 space group operations
 (whereof  1 operations were pure point group operations)
 out of a pool of 24 trial point group operations.


The constrained configuration has the point symmetry C_1 .


 Subroutine INISYM returns: Found  1 space group operations
 (whereof  1 operations are pure point group operations),
 and found     1 'primitive' translations

 
 
 KPOINTS: K-POINTS                                

Automatic generation of k-mesh.
Space group operators:
 irot       det(A)        alpha          n_x          n_y          n_z        tau_x        tau_y        tau_z
    1     1.000000     0.000000     1.000000     0.000000     0.000000     0.000000     0.000000     0.000000
 
 Subroutine IBZKPT returns following result:
 ===========================================
 
 Found      5 irreducible k-points:
 
 Following reciprocal coordinates:
            Coordinates               Weight
  0.000000  0.000000  0.000000      1.000000
  0.333333 -0.000000  0.000000      2.000000
  0.000000  0.333333  0.000000      2.000000
  0.333333  0.333333  0.000000      2.000000
 -0.333333  0.333333  0.000000      2.000000
 
 Following cartesian coordinates:
            Coordinates               Weight
  0.000000  0.000000  0.000000      1.000000
  0.017147 -0.009900  0.000000      2.000000
  0.000000  0.019800  0.000000      2.000000
  0.017147  0.009900  0.000000      2.000000
 -0.017147  0.029700  0.000000      2.000000
 


--------------------------------------------------------------------------------------------------------




 Dimension of arrays:
   k-points           NKPTS =      5   k-points in BZ     NKDIM =      5   number of bands    NBANDS=   1200
   number of dos      NEDOS =    301   number of ions     NIONS =    230
   non local maximal  LDIM  =      6   non local SUM 2l+1 LMDIM =     18
   total plane-waves  NPLWV = ******
   max r-space proj   IRMAX =   2584   max aug-charges    IRDMAX=  11855
   dimension x,y,z NGX =   108 NGY =  108 NGZ =  108
   dimension x,y,z NGXF=   216 NGYF=  216 NGZF=  216
   support grid    NGXF=   216 NGYF=  216 NGZF=  216
   ions per type =             192  26  12
   NGX,Y,Z   is equivalent  to a cutoff of   9.24,  9.24,  8.98 a.u.
   NGXF,Y,Z  is equivalent  to a cutoff of  18.47, 18.47, 17.95 a.u.

 SYSTEM =  x                                       
 POSCAR =  Pt  H  C                                

 Startparameter for this run:
   NWRITE =      0    write-flag & timer
   PREC   = normal    normal or accurate (medium, high low for compatibility)
   ISTART =      0    job   : 0-new  1-cont  2-samecut
   ICHARG =      2    charge: 1-file 2-atom 10-const
   ISPIN  =      1    spin polarized calculation?
   LNONCOLLINEAR =      F non collinear calculations
   LSORBIT =      F    spin-orbit coupling
   INIWAV =      1    electr: 0-lowe 1-rand  2-diag
   LASPH  =      F    aspherical Exc in radial PAW
   METAGGA=      F    non-selfconsistent MetaGGA calc.

 Electronic Relaxation 1
   ENCUT  =  450.0 eV  33.07 Ry    5.75 a.u.  33.62 33.62 34.59*2*pi/ulx,y,z
   ENINI  =  450.0     initial cutoff
   ENAUG  =  644.9 eV  augmentation charge cutoff
   NELM   =     50;   NELMIN=  5; NELMDL= -7     # of ELM steps 
   EDIFF  = 0.1E-04   stopping-criterion for ELM
   LREAL  =      T    real-space projection
   NLSPLINE    = F    spline interpolate recip. space projectors
   LCOMPAT=      F    compatible to vasp.4.4
   GGA_COMPAT  = T    GGA compatible to vasp.4.4-vasp.4.6
   LMAXPAW     = -100 max onsite density
   LMAXMIX     =    2 max onsite mixed and CHGCAR
   VOSKOWN=      0    Vosko Wilk Nusair interpolation
   ROPT   =   -0.00050  -0.00050  -0.00050
 Ionic relaxation
   EDIFFG = -.2E-01   stopping-criterion for IOM
   NSW    =    400    number of steps for IOM
   NBLOCK =      1;   KBLOCK =    400    inner block; outer block 
   IBRION =      2    ionic relax: 0-MD 1-quasi-New 2-CG
   NFREE  =      2    steps in history (QN), initial steepest desc. (CG)
   ISIF   =      2    stress and relaxation
   IWAVPR =     11    prediction:  0-non 1-charg 2-wave 3-comb
   ISYM   =      2    0-nonsym 1-usesym 2-fastsym
   LCORR  =      T    Harris-Foulkes like correction to forces

   POTIM  = 0.1500    time-step for ionic-motion
   TEIN   =    0.0    initial temperature
   TEBEG  =    0.0;   TEEND  =   0.0 temperature during run
   SMASS  =  -3.00    Nose mass-parameter (am)
   estimated Nose-frequenzy (Omega)   =  0.10E-29 period in steps =****** mass=  -0.864E-26a.u.
   SCALEE = 1.0000    scale energy and forces
   NPACO  =    256;   APACO  = 16.0  distance and # of slots for P.C.
   PSTRESS=    0.0 pullay stress

  Mass of Ions in am
   POMASS = 195.08  1.00 12.01
  Ionic Valenz
   ZVAL   =  10.00  1.00  4.00
  Atomic Wigner-Seitz radii
   RWIGS  =  -1.00 -1.00 -1.00
  virtual crystal weights 
   VCA    =   1.00  1.00  1.00
   NELECT =    1994.0000    total number of electrons
   NUPDOWN=      -1.0000    fix difference up-down

 DOS related values:
   EMIN   =  10.00;   EMAX   =-10.00  energy-range for DOS
   EFERMI =   0.00
   ISMEAR =     0;   SIGMA  =   0.03  broadening in eV -4-tet -1-fermi 0-gaus

 Electronic relaxation 2 (details)
   IALGO  =     68    algorithm
   LDIAG  =      T    sub-space diagonalisation (order eigenvalues)
   LSUBROT=      F    optimize rotation matrix (better conditioning)
   TURBO    =      0    0=normal 1=particle mesh
   IRESTART =      0    0=no restart 2=restart with 2 vectors
   NREBOOT  =      0    no. of reboots
   NMIN     =      0    reboot dimension
   EREF     =   0.00    reference energy to select bands
   IMIX   =      4    mixing-type and parameters
     AMIX     =   0.40;   BMIX     =  1.00
     AMIX_MAG =   1.60;   BMIX_MAG =  1.00
     AMIN     =   0.10
     WC   =   100.;   INIMIX=   1;  MIXPRE=   1;  MAXMIX= -45

 Intra band minimization:
   WEIMIN = 0.0010     energy-eigenvalue tresh-hold
   EBREAK =  0.21E-08  absolut break condition
   DEPER  =   0.30     relativ break condition  

   TIME   =   0.40     timestep for ELM

  volume/ion in A,a.u.               =      28.46       192.04
  Fermi-wavevector in a.u.,A,eV,Ry     =   1.101561  2.081649 16.509812  1.213437
  Thomas-Fermi vector in A             =   2.237990
 
 Write flags
   LWAVE        =      F    write WAVECAR
   LDOWNSAMPLE  =      F    k-point downsampling of WAVECAR
   LCHARG       =      F    write CHGCAR
   LVTOT        =      F    write LOCPOT, total local potential
   LVHAR        =      F    write LOCPOT, Hartree potential only
   LELF         =      F    write electronic localiz. function (ELF)
   LORBIT       =      0    0 simple, 1 ext, 2 COOP (PROOUT), +10 PAW based schemes


 Dipole corrections
   LMONO  =      F    monopole corrections only (constant potential shift)
   LDIPOL =      T    correct potential (dipole corrections)
   IDIPOL =      3    1-x, 2-y, 3-z, 4-all directions 
   EPSILON=  1.0000000 bulk dielectric constant

 Exchange correlation treatment:
   GGA     =    PE    GGA type
   LEXCH   =     8    internal setting for exchange type
   VOSKOWN=      0    Vosko Wilk Nusair interpolation
   LHFCALC =     F    Hartree Fock is set to
   LHFONE  =     F    Hartree Fock one center treatment
   AEXX    =    0.0000 exact exchange contribution

 Linear response parameters
   LEPSILON=     F    determine dielectric tensor
   LRPA    =     F    only Hartree local field effects (RPA)
   LNABLA  =     F    use nabla operator in PAW spheres
   LVEL    =     F    velocity operator in full k-point grid
   LINTERFAST=   F  fast interpolation
   KINTER  =     0    interpolate to denser k-point grid
   CSHIFT  =0.1000    complex shift for real part using Kramers Kronig
   OMEGAMAX=  -1.0    maximum frequency
   DEG_THRESHOLD= 0.2000000E-02 threshold for treating states as degnerate
   RTIME   =   -0.100 relaxation time in fs
  (WPLASMAI=    0.000 imaginary part of plasma frequency in eV, 0.658/RTIME)
   DFIELD  = 0.0000000 0.0000000 0.0000000 field for delta impulse in time
 
 Orbital magnetization related:
   ORBITALMAG=     F  switch on orbital magnetization
   LCHIMAG   =     F  perturbation theory with respect to B field
   DQ        =  0.001000  dq finite difference perturbation B field
   LLRAUG    =     F  two centre corrections for induced B field



--------------------------------------------------------------------------------------------------------


 conjugate gradient relaxation of ions
   using selective dynamics as specified on POSCAR
 charge density and potential will be updated during run
 non-spin polarized calculation
 RMM-DIIS sequential band-by-band and
  variant of blocked Davidson during initial phase
 perform sub-space diagonalisation
    before iterative eigenvector-optimisation
 modified Broyden-mixing scheme, WC =      100.0
 initial mixing is a Kerker type mixing with AMIX =  0.4000 and BMIX =      1.0000
 Hartree-type preconditioning will be used
 using additional bands          203
 real space projection scheme for non local part
 use partial core corrections
 calculate Harris-corrections to forces 
   (improved forces if not selfconsistent)
 use gradient corrections 
 use of overlap-Matrix (Vanderbilt PP)
 Gauss-broadening in eV      SIGMA  =   0.03


--------------------------------------------------------------------------------------------------------


  energy-cutoff  :      450.00
  volume of cell :     6545.21
      direct lattice vectors                 reciprocal lattice vectors
    19.439343899  0.000000000  0.000000000     0.051442065 -0.029700090  0.000000000
     9.719671949 16.834965649  0.000000000     0.000000000  0.059400181  0.000000000
     0.000000000  0.000000000 20.000000000     0.000000000  0.000000000  0.050000000

  length of vectors
    19.439343899 19.439343899 20.000000000     0.059400181  0.059400181  0.050000000


 
 k-points in units of 2pi/SCALE and weight: K-POINTS                                
   0.00000000  0.00000000  0.00000000       0.111
   0.01714736 -0.00990003  0.00000000       0.222
   0.00000000  0.01980006  0.00000000       0.222
   0.01714736  0.00990003  0.00000000       0.222
  -0.01714736  0.02970009  0.00000000       0.222
 
 k-points in reciprocal lattice and weights: K-POINTS                                
   0.00000000  0.00000000  0.00000000       0.111
   0.33333333 -0.00000000  0.00000000       0.222
   0.00000000  0.33333333  0.00000000       0.222
   0.33333333  0.33333333  0.00000000       0.222
  -0.33333333  0.33333333  0.00000000       0.222
 
 position of ions in fractional coordinates (direct lattice) 
   0.00000000  0.00000000  0.00000000
   0.08333333  0.08333333  0.00000000
   0.16666667  0.16666667  0.00000000
   0.25000000  0.00000000  0.00000000
   0.33333333  0.08333333  0.00000000
   0.41666667  0.16666667  0.00000000
   1.00000000  0.25000000  0.00000000
   0.08333333  0.33333333  0.00000000
   0.16666667  0.41666667  0.00000000
   0.25000000  0.25000000  0.00000000
   0.33333333  0.33333333  0.00000000
   0.41666667  0.41666667  0.00000000
   0.08333333  0.00000000  0.11454743
   0.00000000  0.16666667  0.11454743
   0.16666667  0.08333333  0.11454743
   0.33333333  0.00000000  0.11454743
   0.25000000  0.16666667  0.11454743
   0.41666667  0.08333333  0.11454743
   0.08333333  0.25000000  0.11454743
   1.00000000  0.41666667  0.11454743
   0.16666667  0.33333333  0.11454743
   0.33333333  0.25000000  0.11454743
   0.25000000  0.41666667  0.11454743
   0.41666667  0.33333333  0.11454743
   0.00007387  0.08331333  0.22712833
   0.16658151  0.00004978  0.22705461
   0.08329457  0.16665152  0.22715192
   0.24980935  0.08344034  0.22699935
   0.41656978  0.00019564  0.22706095
   0.33326423  0.16672627  0.22699063
   0.00010102  0.33313165  0.22722479
   0.16657679  0.25007939  0.22704141
   0.08330048  0.41648517  0.22702975
   0.25010245  0.33338159  0.22714689
   0.41662502  0.25016511  0.22717406
   0.33313224  0.41661766  0.22685906
   0.00006108  0.00003207  0.34161782
   0.08336583  0.08332919  0.34168193
   0.16657991  0.16672505  0.34164564
   0.24989562  0.00006346  0.34159821
   0.33309331  0.08337422  0.34151510
   0.41689830  0.16603009  0.34121585
   0.00005356  0.24993013  0.34176220
   0.08339293  0.33325714  0.34176209
   0.16619102  0.41700645  0.34148766
   0.24982892  0.24986490  0.34154195
   0.33280545  0.33356067  0.34182173
   0.41617819  0.41723419  0.34130620
   0.00000000  0.50000000  0.00000000
   0.08333333  0.58333333  0.00000000
   0.16666667  0.66666667  0.00000000
   0.25000000  0.50000000  0.00000000
   0.33333333  0.58333333  0.00000000
   0.41666667  0.66666667  0.00000000
   0.00000000  0.75000000  0.00000000
   0.08333333  0.83333333  0.00000000
   0.16666667  0.91666667  0.00000000
   0.25000000  0.75000000  0.00000000
   0.33333333  0.83333333  0.00000000
   0.41666667  0.91666667  0.00000000
   0.08333333  0.50000000  0.11454743
   1.00000000  0.66666667  0.11454743
   0.16666667  0.58333333  0.11454743
   0.33333333  0.50000000  0.11454743
   0.25000000  0.66666667  0.11454743
   0.41666667  0.58333333  0.11454743
   0.08333333  0.75000000  0.11454743
   0.00000000  0.91666667  0.11454743
   0.16666667  0.83333333  0.11454743
   0.33333333  0.75000000  0.11454743
   0.25000000  0.91666667  0.11454743
   0.41666667  0.83333333  0.11454743
   0.99996369  0.58328643  0.22696749
   0.16637226  0.50005235  0.22683608
   0.08325749  0.66685473  0.22707953
   0.24973116  0.58364237  0.22682973
   0.41629631  0.50005784  0.22652280
   0.33340228  0.66689034  0.22691264
   0.99996311  0.83346782  0.22709423
   0.16662624  0.75019222  0.22701782
   0.08330016  0.91676509  0.22709049
   0.25003863  0.83339869  0.22699491
   0.41672607  0.75021579  0.22696609
   0.33319659  0.91678989  0.22703594
   0.00004339  0.49997848  0.34152410
   0.08318220  0.58353402  0.34157289
   0.16652392  0.66706411  0.34168040
   0.24906761  0.50100546  0.34095087
   0.33308197  0.58394560  0.34123561
   0.41671175  0.66677814  0.34162692
   0.99998877  0.75008293  0.34166719
   0.08336755  0.83333752  0.34159692
   0.16676064  0.91668099  0.34157389
   0.24990191  0.75018253  0.34158972
   0.33324485  0.83339573  0.34159943
   0.41627458  0.91697396  0.34163495
   0.50000000  0.00000000  0.00000000
   0.58333333  0.08333333  0.00000000
   0.66666667  0.16666667  0.00000000
   0.75000000  0.00000000  0.00000000
   0.83333333  0.08333333  0.00000000
   0.91666667  0.16666667  0.00000000
   0.50000000  0.25000000  0.00000000
   0.58333333  0.33333333  0.00000000
   0.66666667  0.41666667  0.00000000
   0.75000000  0.25000000  0.00000000
   0.83333333  0.33333333  0.00000000
   0.91666667  0.41666667  0.00000000
   0.58333333  0.00000000  0.11454743
   0.50000000  0.16666667  0.11454743
   0.66666667  0.08333333  0.11454743
   0.83333333  0.00000000  0.11454743
   0.75000000  0.16666667  0.11454743
   0.91666667  0.08333333  0.11454743
   0.58333333  0.25000000  0.11454743
   0.50000000  0.41666667  0.11454743
   0.66666667  0.33333333  0.11454743
   0.83333333  0.25000000  0.11454743
   0.75000000  0.41666667  0.11454743
   0.91666667  0.33333333  0.11454743
   0.50008351  0.08340613  0.22685221
   0.66681648  0.00016177  0.22694949
   0.58350484  0.16661102  0.22688995
   0.75022496  0.08334531  0.22706190
   0.91676671  0.00006565  0.22713542
   0.83356000  0.16659954  0.22715985
   0.50005216  0.33344325  0.22725783
   0.66690517  0.24980947  0.22705967
   0.58366872  0.41635684  0.22675616
   0.75031844  0.33315844  0.22707523
   0.91680235  0.24993274  0.22712700
   0.83354165  0.41655242  0.22702798
   0.49991161  0.00005551  0.34154969
   0.58342959  0.08329299  0.34157174
   0.66675736  0.16661558  0.34162635
   0.75000962  0.00004541  0.34155429
   0.83336054  0.08334075  0.34168055
   0.91667637  0.16665941  0.34173049
   0.50065055  0.24950913  0.34128527
   0.58367934  0.33320208  0.34173582
   0.66681617  0.41651074  0.34158587
   0.75010795  0.24994875  0.34168301
   0.83346519  0.33325535  0.34165898
   0.91685063  0.41658269  0.34166479
   0.50000000  0.50000000  0.00000000
   0.58333333  0.58333333  0.00000000
   0.66666667  0.66666667  0.00000000
   0.75000000  0.50000000  0.00000000
   0.83333333  0.58333333  0.00000000
   0.91666667  0.66666667  0.00000000
   0.50000000  0.75000000  0.00000000
   0.58333333  0.83333333  0.00000000
   0.66666667  0.91666667  0.00000000
   0.75000000  0.75000000  0.00000000
   0.83333333  0.83333333  0.00000000
   0.91666667  0.91666667  0.00000000
   0.58333333  0.50000000  0.11454743
   0.50000000  0.66666667  0.11454743
   0.66666667  0.58333333  0.11454743
   0.83333333  0.50000000  0.11454743
   0.75000000  0.66666667  0.11454743
   0.91666667  0.58333333  0.11454743
   0.58333333  0.75000000  0.11454743
   0.50000000  0.91666667  0.11454743
   0.66666667  0.83333333  0.11454743
   0.83333333  0.75000000  0.11454743
   0.75000000  0.91666667  0.11454743
   0.91666667  0.83333333  0.11454743
   0.49997781  0.58362675  0.22655271
   0.66690856  0.49988386  0.22675575
   0.58340684  0.66703376  0.22700679
   0.75000851  0.58348772  0.22703800
   0.91676751  0.49977921  0.22693750
   0.83358262  0.66657458  0.22691613
   0.49987253  0.83359498  0.22697381
   0.66669518  0.75021829  0.22686710
   0.58332523  0.91697979  0.22673564
   0.75009469  0.83358269  0.22684847
   0.91672951  0.75012718  0.22701506
   0.83339709  0.91682695  0.22705255
   0.50016853  0.49999741  0.33992579
   0.58401324  0.58297633  0.34069822
   0.66752397  0.66648024  0.34146999
   0.75046140  0.49958317  0.34142919
   0.83393931  0.58320045  0.34141267
   0.91693811  0.66669685  0.34150210
   0.49963271  0.75037811  0.34163964
   0.58294956  0.83418988  0.34096181
   0.66682789  0.91688008  0.34133513
   0.75049419  0.75023057  0.34096711
   0.83346771  0.83344890  0.34151991
   0.91673672  0.91668492  0.34162685
   0.59738312  0.82788613  0.55333483
   0.58010348  0.83524678  0.46570803
   0.67790596  0.80123006  0.49651816
   0.68202905  0.67766642  0.54217470
   0.66711526  0.68615375  0.45469776
   0.52224844  0.74111468  0.46914413
   0.53211306  0.73754937  0.55735159
   0.62404875  0.58854018  0.55042259
   0.61324525  0.59403583  0.46254497
   0.46935714  0.64140790  0.47216790
   0.47465595  0.64153969  0.56063498
   0.56824198  0.49530146  0.56111984
   0.57150427  0.49413767  0.47273150
   0.42916144  0.53574200  0.46557276
   0.41930530  0.54329962  0.55348942
   0.51210193  0.39858709  0.56613907
   0.53310331  0.38885927  0.47931331
   0.39603759  0.42674242  0.45074814
   0.36516202  0.44859195  0.53496470
   0.45953408  0.30275504  0.56409381
   0.48436088  0.28386753  0.47824222
   0.34255220  0.33074813  0.44950709
   0.31510126  0.35182316  0.53444053
   0.43272027  0.18565672  0.47751605
   0.33207837  0.21910260  0.49947453
   0.40265497  0.20528198  0.56276703
   0.62322730  0.79888344  0.50519102
   0.63836040  0.71416779  0.50359053
   0.56369052  0.70786042  0.51083313
   0.58157976  0.62211728  0.51001596
   0.50915259  0.61153069  0.51536112
   0.53229762  0.52410330  0.51609155
   0.46179988  0.51029415  0.51300940
   0.48589478  0.42267143  0.51664656
   0.41680110  0.40835338  0.50389593
   0.43598503  0.32277008  0.51305697
   0.36496844  0.31107328  0.50214133
   0.38374626  0.22573374  0.51111084
 
 position of ions in cartesian coordinates  (Angst):
   0.00000000  0.00000000  0.00000000
   2.42991799  1.40291380  0.00000000
   4.85983597  2.80582761  0.00000000
   4.85983597  0.00000000  0.00000000
   7.28975396  1.40291380  0.00000000
   9.71967195  2.80582761  0.00000000
  21.86926189  4.20874141  0.00000000
   4.85983597  5.61165522  0.00000000
   7.28975396  7.01456902  0.00000000
   7.28975396  4.20874141  0.00000000
   9.71967195  5.61165522  0.00000000
  12.14958994  7.01456902  0.00000000
   1.61994532  0.00000000  2.29094865
   1.61994532  2.80582761  2.29094865
   4.04986331  1.40291380  2.29094865
   6.47978130  0.00000000  2.29094865
   6.47978130  2.80582761  2.29094865
   8.90969929  1.40291380  2.29094865
   4.04986331  4.20874141  2.29094865
  23.48920721  7.01456902  2.29094865
   6.47978130  5.61165522  2.29094865
   8.90969929  4.20874141  2.29094865
   8.90969929  7.01456902  2.29094865
  11.33961727  5.61165522  2.29094865
   0.81121410  1.40257700  4.54256660
   3.23871917  0.00083803  4.54109220
   3.23898998  2.80557266  4.54303840
   5.66714259  1.40471518  4.53998693
   8.09974467  0.00329358  4.54121894
   8.09896259  2.80683099  4.53981265
   3.23989409  5.60825982  4.54449572
   5.66883318  4.21007792  4.54082827
   5.66740589  7.01151354  4.54059494
   8.10218709  5.61246753  4.54293782
  10.53043983  4.21152096  4.54348130
  10.52525924  7.01374407  4.53718118
   0.00149898  0.00053990  6.83235649
   2.43050943  1.40284403  6.83363865
   4.85871690  2.80681047  6.83291281
   4.85842362  0.00106831  6.83196426
   7.28548547  1.40360210  6.83030208
   9.71798739  2.79511083  6.82431697
   2.43028001  4.20756508  6.83524404
   4.86025383  5.61037245  6.83524176
   7.28381038  7.02028930  6.82975323
   7.28511524  4.20646706  6.83083891
   9.71161984  5.61548240  6.83643461
  12.14561041  7.02412332  6.82612401
   4.85983597  8.41748282  0.00000000
   7.28975396  9.82039663  0.00000000
   9.71967195 11.22331043  0.00000000
   9.71967195  8.41748282  0.00000000
  12.14958994  9.82039663  0.00000000
  14.57950792 11.22331043  0.00000000
   7.28975396 12.62622424  0.00000000
   9.71967195 14.02913804  0.00000000
  12.14958994 15.43205185  0.00000000
  12.14958994 12.62622424  0.00000000
  14.57950792 14.02913804  0.00000000
  17.00942591 15.43205185  0.00000000
   6.47978130  8.41748282  2.29094865
  25.91912520 11.22331043  2.29094865
   8.90969929  9.82039663  2.29094865
  11.33961727  8.41748282  2.29094865
  11.33961727 11.22331043  2.29094865
  13.76953526  9.82039663  2.29094865
   8.90969929 12.62622424  2.29094865
   8.90969929 15.43205185  2.29094865
  11.33961727 14.02913804  2.29094865
  13.76953526 12.62622424  2.29094865
  13.76953526 15.43205185  2.29094865
  16.19945325 14.02913804  2.29094865
  25.10799088  9.81960706  4.53934986
   8.09451238  8.41836406  4.53672160
   8.10008026 11.22647644  4.54159051
  10.52742223  9.82559933  4.53659456
  12.95292521  8.41845656  4.53045599
  12.96307698 11.22707601  4.53825282
  27.53966062 14.03140210  4.54188458
  10.53072705 12.62946028  4.54035646
  10.52995635 15.43370873  4.54180988
  12.96094884 14.03023828  4.53989810
  15.39273282 12.62985707  4.53932178
  15.38802009 15.43412638  4.54071873
   4.86047028  8.41712053  6.83048200
   7.28876672  9.82377522  6.83145773
   9.72076006 11.23000141  6.83360810
   9.71131970  8.43440977  6.81901750
  12.15065459  9.83070420  6.82471225
  14.58146780 11.22518709  6.83253831
  26.72968567 12.62762033  6.83334386
   9.72037785 14.02920857  6.83193836
  12.15155601 15.43229294  6.83147781
  12.14945732 12.62929709  6.83179437
  14.57839425 14.03018847  6.83198856
  17.00479073 15.43722505  6.83269894
   9.71967195  0.00000000  0.00000000
  12.14958994  1.40291380  0.00000000
  14.57950792  2.80582761  0.00000000
  14.57950792  0.00000000  0.00000000
  17.00942591  1.40291380  0.00000000
  19.43934390  2.80582761  0.00000000
  12.14958994  4.20874141  0.00000000
  14.57950792  5.61165522  0.00000000
  17.00942591  7.01456902  0.00000000
  17.00942591  4.20874141  0.00000000
  19.43934390  5.61165522  0.00000000
  21.86926189  7.01456902  0.00000000
  11.33961727  0.00000000  2.29094865
  11.33961727  2.80582761  2.29094865
  13.76953526  1.40291380  2.29094865
  16.19945325  0.00000000  2.29094865
  16.19945325  2.80582761  2.29094865
  18.62937124  1.40291380  2.29094865
  13.76953526  4.20874141  2.29094865
  13.76953526  7.01456902  2.29094865
  16.19945325  5.61165522  2.29094865
  18.62937124  4.20874141  2.29094865
  18.62937124  7.01456902  2.29094865
  21.05928922  5.61165522  2.29094865
  10.53197551  1.40413929  4.53704426
  12.96404730  0.00272341  4.53898985
  12.96235577  2.80489086  4.53779894
  15.39397015  1.40311541  4.54123796
  17.82198145  0.00110522  4.54270834
  17.82315227  2.80469749  4.54319706
  12.96164495  5.61350568  4.54515667
  15.39226498  4.20553378  4.54119334
  15.39298890  7.00935306  4.53512329
  17.82388883  5.60871084  4.54150465
  20.25130035  4.20760908  4.54253991
  20.25225568  7.01264564  4.54055951
   9.71849336  0.00093456  6.83099375
  12.15106894  1.40223466  6.83143487
  14.58077441  2.80496753  6.83252697
  14.58013636  0.00076454  6.83108571
  17.01002688  1.40303868  6.83361094
  19.43946203  2.80570551  6.83460975
  12.15746508  4.20047762  6.82570540
  14.58495825  5.60944550  6.83471632
  17.01081656  7.01194392  6.83171739
  17.01102633  4.20787863  6.83366017
  19.44114918  5.61034240  6.83317954
  21.87202183  7.01315520  6.83329582
  14.57950792  8.41748282  0.00000000
  17.00942591  9.82039663  0.00000000
  19.43934390 11.22331043  0.00000000
  19.43934390  8.41748282  0.00000000
  21.86926189  9.82039663  0.00000000
  24.29917987 11.22331043  0.00000000
  17.00942591 12.62622424  0.00000000
  19.43934390 14.02913804  0.00000000
  21.86926189 15.43205185  0.00000000
  21.86926189 12.62622424  0.00000000
  24.29917987 14.02913804  0.00000000
  26.72909786 15.43205185  0.00000000
  16.19945325  8.41748282  2.29094865
  16.19945325 11.22331043  2.29094865
  18.62937124  9.82039663  2.29094865
  21.05928922  8.41748282  2.29094865
  21.05928922 11.22331043  2.29094865
  23.48920721  9.82039663  2.29094865
  18.62937124 12.62622424  2.29094865
  18.62937124 15.43205185  2.29094865
  21.05928922 14.02913804  2.29094865
  23.48920721 12.62622424  2.29094865
  23.48920721 15.43205185  2.29094865
  25.91912520 14.02913804  2.29094865
  15.39190108  9.82533623  4.53105421
  17.82297192  8.41552765  4.53511495
  17.82439560 11.22949051  4.54013589
  20.25098256  9.82299569  4.54075995
  22.67904895  8.41376588  4.53874998
  22.68318536 11.22176011  4.53832259
  17.81946363 14.03354280  4.53947628
  20.25199253 12.62989911  4.53734191
  20.25220255 15.43732320  4.53471282
  22.68349886 14.03333590  4.53696946
  25.11161025 12.62836528  4.54030123
  25.11194994 15.43475024  4.54105096
  14.58275879  8.41743915  6.79851577
  17.01917282  9.81438642  6.81396446
  19.45419731 11.22017192  6.82939984
  19.44426180  8.41046556  6.82858378
  21.87975019  9.81815955  6.82825347
  24.30474993 11.22381852  6.83004199
  17.00596122 12.63258970  6.83279275
  19.44020896 14.04355804  6.81923617
  21.87447034 15.43564472  6.82670256
  21.88110975 12.63010588  6.81934212
  24.30291535 14.03108356  6.83039818
  26.73063711 15.43235916  6.83253697
  19.65951748 13.93743448 11.06669653
  19.39515580 14.06135081  9.31416068
  20.96574051 13.48868060  9.93036320
  19.84489256 11.40849083 10.84349400
  19.63747240 11.55137487  9.09395523
  17.35555853 12.47664010  9.38288250
  17.51266679 12.41661836 11.14703172
  17.85151572  9.90805372 11.00845173
  17.69491865 10.00057279  9.25089950
  15.35826922 10.79807991  9.44335802
  15.46255565 10.80029861 11.21269956
  15.86041896  8.33838302 11.22239689
  15.91252404  8.31879066  9.45462991
  13.54985335  9.01919820  9.31145523
  13.43171387  9.14643037 11.06978834
  13.82906128  6.71020005 11.32278132
  14.14276314  6.54643245  9.58626616
  11.84650724  7.18419396  9.01496281
  11.45867668  7.55203002 10.69929404
  11.87572064  5.09687070 11.28187630
  12.17475688  4.77890008  9.56484445
   9.87375336  5.56813346  8.99014178
   9.54496740  5.92293085 10.68881059
  10.21632056  3.12552450  9.55032102
   8.58499093  3.68858473  9.98949050
   9.82262192  3.45591516 11.25534058
  19.88001490 13.44917534 10.10382030
  19.35078403 12.02299014 10.07181061
  17.83794490 11.91680593 10.21666251
  17.35230479 10.47332298 10.20031926
  15.84146995 10.29509823 10.30722235
  15.44162873  8.82326110 10.32183101
  13.93697844  8.59078453 10.26018795
  13.55370333  7.11565902 10.33293125
  12.07140095  6.87461520 10.07791858
  11.61248222  5.43382321 10.26113934
  10.11827726  5.23690805 10.04282653
   9.65383342  3.80021983 10.22221680
 


--------------------------------------------------------------------------------------------------------


 k-point  1 :   0.0000 0.0000 0.0000  plane waves:  142035
 k-point  2 :   0.3333-0.0000 0.0000  plane waves:  141928
 k-point  3 :   0.0000 0.3333 0.0000  plane waves:  141928
 k-point  4 :   0.3333 0.3333 0.0000  plane waves:  141928
 k-point  5 :  -0.3333 0.3333 0.0000  plane waves:  141846

 maximum and minimum number of plane-waves per node :    142035   141846

 maximum number of plane-waves:    142035
 maximum index in each direction: 
   IXMAX=   33   IYMAX=   33   IZMAX=   34
   IXMIN=  -33   IYMIN=  -33   IZMIN=  -34


 serial   3D FFT for wavefunctions
 parallel 3D FFT for charge:
    minimum data exchange during FFTs selected (reduces bandwidth)


 total amount of memory used by VASP MPI-rank0   491494. kBytes
=======================================================================

   base      :      30000. kBytes
   nonlr-proj:      87869. kBytes
   fftplans  :      12889. kBytes
   grid      :      65608. kBytes
   one-center:       3576. kBytes
   wavefun   :     291552. kBytes
 
     INWAV:  cpu time    0.0000: real time    0.0004
 Broyden mixing: mesh for mixing (old mesh)
   NGX = 67   NGY = 67   NGZ = 69
  (NGX  =216   NGY  =216   NGZ  =216)
  gives a total of 309741 points

 initial charge density was supplied:
 charge density of overlapping atoms calculated
 number of electron    1994.0000000 magnetization 
 keeping initial charge density in first step


--------------------------------------------------------------------------------------------------------


 Maximum index for non-local projection operator         2490
 Maximum index for augmentation-charges          551 (set IRDMAX)


--------------------------------------------------------------------------------------------------------


 First call to EWALD:  gamma=   0.095
 Maximum number of real-space cells 3x 3x 3
 Maximum number of reciprocal cells 3x 3x 3

    FEWALD:  cpu time    0.0110: real time    0.0110


--------------------------------------- Iteration      1(   1)  ---------------------------------------


    POTLOK:  cpu time    0.2159: real time    0.2290
    SETDIJ:  cpu time    0.0211: real time    0.0284
     EDDAV:  cpu time  101.2694: real time  101.3860
       DOS:  cpu time    0.0019: real time    0.0041
    --------------------------------------------
      LOOP:  cpu time  101.5083: real time  101.6476

 eigenvalue-minimisations  : 12000
 total energy-change (2. order) : 0.1226899E+05  (-0.8560878E+05)
 number of electron    1994.0000000 magnetization 
 augmentation part     1994.0000000 magnetization 

 DIPCOR: dipole corrections for dipol
 direction  3 min pos   155,
 dipolmoment           0.000000      0.000000     -0.041373 electrons x Angstroem
 Tr[quadrupol]   -130951.932983

 energy correction for charged system         0.000000 eV
 dipol+quadrupol energy correction           -0.000025 eV
 added-field ion interaction         -1.421624 eV  (added to PSCEN)


 Free energy of the ion-electron system (eV)
  ---------------------------------------------------
  alpha Z        PSCENC =      5653.17898363
  Ewald energy   TEWEN  =    344564.58317437
  -Hartree energ DENC   =   -498488.25479718
  -exchange      EXHF   =         0.00000000
  -V(xc)+E(xc)   XCENC  =       870.01242788
  PAW double counting   =    135013.46807210  -129590.14959843
  entropy T*S    EENTRO =        -0.04457673
  eigenvalues    EBANDS =     12166.29218154
  atomic energy  EATOM  =    142079.90570862
  Solvation  Ediel_sol  =         0.00000000
  ---------------------------------------------------
  free energy    TOTEN  =     12268.99157580 eV

  energy without entropy =    12269.03615253  energy(sigma->0) =    12269.01386416


--------------------------------------------------------------------------------------------------------




--------------------------------------- Iteration      1(   2)  ---------------------------------------


     EDDAV:  cpu time  111.8396: real time  111.9654
       DOS:  cpu time    0.0013: real time    0.0013
    --------------------------------------------
      LOOP:  cpu time  111.8409: real time  111.9667

 eigenvalue-minimisations  : 13632
 total energy-change (2. order) :-0.1278938E+05  (-0.1189314E+05)
 number of electron    1994.0000000 magnetization 
 augmentation part     1994.0000000 magnetization 

 DIPCOR: dipole corrections for dipol
 direction  3 min pos   155,
 dipolmoment           0.000000      0.000000     -0.041373 electrons x Angstroem
 Tr[quadrupol]   -130951.932983

 energy correction for charged system         0.000000 eV
 dipol+quadrupol energy correction           -0.000025 eV
 added-field ion interaction         -1.421624 eV  (added to PSCEN)


 Free energy of the ion-electron system (eV)
  ---------------------------------------------------
  alpha Z        PSCENC =      5653.17898363
  Ewald energy   TEWEN  =    344564.58317437
  -Hartree energ DENC   =   -498488.25479718
  -exchange      EXHF   =         0.00000000
  -V(xc)+E(xc)   XCENC  =       870.01242788
  PAW double counting   =    135013.46807210  -129590.14959843
  entropy T*S    EENTRO =        -0.08015961
  eigenvalues    EBANDS =      -623.05068653
  atomic energy  EATOM  =    142079.90570862
  Solvation  Ediel_sol  =         0.00000000
  ---------------------------------------------------
  free energy    TOTEN  =      -520.38687516 eV

  energy without entropy =     -520.30671554  energy(sigma->0) =     -520.34679535


--------------------------------------------------------------------------------------------------------




--------------------------------------- Iteration      1(   3)  ---------------------------------------


     EDDAV:  cpu time  122.9133: real time  123.3521
       DOS:  cpu time    0.0013: real time    0.0013
    --------------------------------------------
      LOOP:  cpu time  122.9146: real time  123.3535

 eigenvalue-minimisations  : 14688
 total energy-change (2. order) :-0.8575294E+03  (-0.7765228E+03)
 number of electron    1994.0000000 magnetization 
 augmentation part     1994.0000000 magnetization 

 DIPCOR: dipole corrections for dipol
 direction  3 min pos   155,
 dipolmoment           0.000000      0.000000     -0.041373 electrons x Angstroem
 Tr[quadrupol]   -130951.932983

 energy correction for charged system         0.000000 eV
 dipol+quadrupol energy correction           -0.000025 eV
 added-field ion interaction         -1.421624 eV  (added to PSCEN)


 Free energy of the ion-electron system (eV)
  ---------------------------------------------------
  alpha Z        PSCENC =      5653.17898363
  Ewald energy   TEWEN  =    344564.58317437
  -Hartree energ DENC   =   -498488.25479718
  -exchange      EXHF   =         0.00000000
  -V(xc)+E(xc)   XCENC  =       870.01242788
  PAW double counting   =    135013.46807210  -129590.14959843
  entropy T*S    EENTRO =        -0.17956580
  eigenvalues    EBANDS =     -1480.48066361
  atomic energy  EATOM  =    142079.90570862
  Solvation  Ediel_sol  =         0.00000000
  ---------------------------------------------------
  free energy    TOTEN  =     -1377.91625841 eV

  energy without entropy =    -1377.73669262  energy(sigma->0) =    -1377.82647552


--------------------------------------------------------------------------------------------------------




--------------------------------------- Iteration      1(   4)  ---------------------------------------


     EDDAV:  cpu time  120.9394: real time  121.0750
       DOS:  cpu time    0.0013: real time    0.0013
    --------------------------------------------
      LOOP:  cpu time  120.9408: real time  121.0763

 eigenvalue-minimisations  : 15024
 total energy-change (2. order) :-0.3652437E+02  (-0.3537131E+02)
 number of electron    1994.0000000 magnetization 
 augmentation part     1994.0000000 magnetization 

 DIPCOR: dipole corrections for dipol
 direction  3 min pos   155,
 dipolmoment           0.000000      0.000000     -0.041373 electrons x Angstroem
 Tr[quadrupol]   -130951.932983

 energy correction for charged system         0.000000 eV
 dipol+quadrupol energy correction           -0.000025 eV
 added-field ion interaction         -1.421624 eV  (added to PSCEN)


 Free energy of the ion-electron system (eV)
  ---------------------------------------------------
  alpha Z        PSCENC =      5653.17898363
  Ewald energy   TEWEN  =    344564.58317437
  -Hartree energ DENC   =   -498488.25479718
  -exchange      EXHF   =         0.00000000
  -V(xc)+E(xc)   XCENC  =       870.01242788
  PAW double counting   =    135013.46807210  -129590.14959843
  entropy T*S    EENTRO =        -0.19924547
  eigenvalues    EBANDS =     -1516.98535124
  atomic energy  EATOM  =    142079.90570862
  Solvation  Ediel_sol  =         0.00000000
  ---------------------------------------------------
  free energy    TOTEN  =     -1414.44062572 eV

  energy without entropy =    -1414.24138025  energy(sigma->0) =    -1414.34100298


--------------------------------------------------------------------------------------------------------




--------------------------------------- Iteration      1(   5)  ---------------------------------------


     EDDAV:  cpu time  141.0774: real time  141.6305
       DOS:  cpu time    0.0013: real time    0.0013
    --------------------------------------------
      LOOP:  cpu time  141.0787: real time  141.6318

 eigenvalue-minimisations  : 17472
 total energy-change (2. order) :-0.1232911E+01  (-0.1229872E+01)
 number of electron    1994.0000000 magnetization 
 augmentation part     1994.0000000 magnetization 

 DIPCOR: dipole corrections for dipol
 direction  3 min pos   155,
 dipolmoment           0.000000      0.000000     -0.041373 electrons x Angstroem
 Tr[quadrupol]   -130951.932983

 energy correction for charged system         0.000000 eV
 dipol+quadrupol energy correction           -0.000025 eV
 added-field ion interaction         -1.421624 eV  (added to PSCEN)


 Free energy of the ion-electron system (eV)
  ---------------------------------------------------
  alpha Z        PSCENC =      5653.17898363
  Ewald energy   TEWEN  =    344564.58317437
  -Hartree energ DENC   =   -498488.25479718
  -exchange      EXHF   =         0.00000000
  -V(xc)+E(xc)   XCENC  =       870.01242788
  PAW double counting   =    135013.46807210  -129590.14959843
  entropy T*S    EENTRO =        -0.19948789
  eigenvalues    EBANDS =     -1518.21801982
  atomic energy  EATOM  =    142079.90570862
  Solvation  Ediel_sol  =         0.00000000
  ---------------------------------------------------
  free energy    TOTEN  =     -1415.67353672 eV

  energy without entropy =    -1415.47404883  energy(sigma->0) =    -1415.57379277


--------------------------------------------------------------------------------------------------------




--------------------------------------- Iteration      1(   6)  ---------------------------------------


     EDDAV:  cpu time  128.8761: real time  128.9995
       DOS:  cpu time    0.0013: real time    0.0013
    --------------------------------------------
      LOOP:  cpu time  128.8774: real time  129.0008

 eigenvalue-minimisations  : 16128
 total energy-change (2. order) :-0.3313655E-01  (-0.3311794E-01)
 number of electron    1994.0000000 magnetization 
 augmentation part     1994.0000000 magnetization 

 DIPCOR: dipole corrections for dipol
 direction  3 min pos   155,
 dipolmoment           0.000000      0.000000     -0.041373 electrons x Angstroem
 Tr[quadrupol]   -130951.932983

 energy correction for charged system         0.000000 eV
 dipol+quadrupol energy correction           -0.000025 eV
 added-field ion interaction         -1.421624 eV  (added to PSCEN)


 Free energy of the ion-electron system (eV)
  ---------------------------------------------------
  alpha Z        PSCENC =      5653.17898363
  Ewald energy   TEWEN  =    344564.58317437
  -Hartree energ DENC   =   -498488.25479718
  -exchange      EXHF   =         0.00000000
  -V(xc)+E(xc)   XCENC  =       870.01242788
  PAW double counting   =    135013.46807210  -129590.14959843
  entropy T*S    EENTRO =        -0.19949026
  eigenvalues    EBANDS =     -1518.25115399
  atomic energy  EATOM  =    142079.90570862
  Solvation  Ediel_sol  =         0.00000000
  ---------------------------------------------------
  free energy    TOTEN  =     -1415.70667327 eV

  energy without entropy =    -1415.50718300  energy(sigma->0) =    -1415.60692813


--------------------------------------------------------------------------------------------------------




--------------------------------------- Iteration      1(   7)  ---------------------------------------


     EDDAV:  cpu time  139.8479: real time  139.9400
       DOS:  cpu time    0.0013: real time    0.0013
    CHARGE:  cpu time    4.4787: real time    4.4849
    MIXING:  cpu time    0.0060: real time    0.0065
[...]
    --------------------------------------------
      LOOP:  cpu time   80.1577: real time   80.2191

 eigenvalue-minimisations  : 11610
 total energy-change (2. order) :-0.5396631E-03  (-0.1253327E-04)
 number of electron    1994.0000646 magnetization 
 augmentation part      598.2258645 magnetization 

 DIPCOR: dipole corrections for dipol
 direction  3 min pos   154,
 dipolmoment           0.000000      0.000000     -0.710855 electrons x Angstroem
 Tr[quadrupol]   -130966.274991

 energy correction for charged system         0.000000 eV
 dipol+quadrupol energy correction           -0.007347 eV
 added-field ion interaction        -20.609271 eV  (added to PSCEN)


 eigenvalues of (default mixing * dielectric matrix)
  average eigenvalue GAMMA=   0.0662
  0.0662

  free energy =  -0.131660426499E+04  energy without entropy=  -0.131637208580E+04


--------------------------------------------------------------------------------------------------------




--------------------------------------- Iteration      7(   3)  ---------------------------------------


    POTLOK:  cpu time    0.2042: real time    0.2045
    SETDIJ:  cpu time    0.0208: real time    0.0208
    EDDIAG:  cpu time   19.4059: real time   19.4136
  RMM-DIIS:  cpu time   42.9088: real time   42.9271
    ORTHCH:  cpu time    6.2543: real time    6.2562
       DOS:  cpu time    0.0013: real time    0.0013
    CHARGE:  cpu time    4.5069: real time    4.5087
    MIXING:  cpu time    0.0058: real time    0.0058
    --------------------------------------------
      LOOP:  cpu time   73.3082: real time   73.3382

 eigenvalue-minimisations  : 10857
 total energy-change (2. order) : 0.5249051E-03  (-0.6305031E-05)
 number of electron    1994.0000646 magnetization 
 augmentation part      598.2260291 magnetization 

 DIPCOR: dipole corrections for dipol
 direction  3 min pos   154,
 dipolmoment           0.000000      0.000000     -0.706165 electrons x Angstroem
 Tr[quadrupol]   -130966.282505

 energy correction for charged system         0.000000 eV
 dipol+quadrupol energy correction           -0.007250 eV
 added-field ion interaction        -20.473300 eV  (added to PSCEN)


 eigenvalues of (default mixing * dielectric matrix)
  average eigenvalue GAMMA=   0.1456
  0.2295  0.0618

  free energy =  -0.131660374008E+04  energy without entropy=  -0.131637151851E+04


--------------------------------------------------------------------------------------------------------




--------------------------------------- Iteration      7(   4)  ---------------------------------------


    POTLOK:  cpu time    0.2041: real time    0.2063
    SETDIJ:  cpu time    0.0208: real time    0.0208
    EDDIAG:  cpu time   19.3181: real time   19.3261
  RMM-DIIS:  cpu time   26.1257: real time   26.1446
    ORTHCH:  cpu time    6.2441: real time    6.2472
       DOS:  cpu time    0.0013: real time    0.0013
    CHARGE:  cpu time    4.5583: real time    4.5600
    MIXING:  cpu time    0.0206: real time    0.0206
    --------------------------------------------
      LOOP:  cpu time   56.4931: real time   56.5271

 eigenvalue-minimisations  :  6427
 total energy-change (2. order) : 0.8412579E-05  (-0.4440577E-06)
 number of electron    1994.0000646 magnetization 
 augmentation part      598.2257646 magnetization 

 DIPCOR: dipole corrections for dipol
 direction  3 min pos   154,
 dipolmoment           0.000000      0.000000     -0.706408 electrons x Angstroem
 Tr[quadrupol]   -130966.284932

 energy correction for charged system         0.000000 eV
 dipol+quadrupol energy correction           -0.007255 eV
 added-field ion interaction        -20.480328 eV  (added to PSCEN)


 eigenvalues of (default mixing * dielectric matrix)
  average eigenvalue GAMMA=   0.1953
  0.3692  0.0622  0.1543

  free energy =  -0.131660373167E+04  energy without entropy=  -0.131637153085E+04


--------------------------------------------------------------------------------------------------------




--------------------------------------- Iteration      7(   5)  ---------------------------------------


    POTLOK:  cpu time    0.2594: real time    0.2601
    SETDIJ:  cpu time    0.0210: real time    0.0210
    EDDIAG:  cpu time   19.3254: real time   19.3316
  RMM-DIIS:  cpu time   23.7491: real time   23.7567
    ORTHCH:  cpu time    6.2477: real time    6.2504
       DOS:  cpu time    0.0013: real time    0.0013
    --------------------------------------------
      LOOP:  cpu time   49.6039: real time   49.6211

 eigenvalue-minimisations  :  5205
 total energy-change (2. order) :-0.2574961E-05  (-0.1274959E-06)
 number of electron    1994.0000646 magnetization 
 augmentation part      598.2257646 magnetization 

 DIPCOR: dipole corrections for dipol
 direction  3 min pos   154,
 dipolmoment           0.000000      0.000000     -0.706371 electrons x Angstroem
 Tr[quadrupol]   -130966.286267

 energy correction for charged system         0.000000 eV
 dipol+quadrupol energy correction           -0.007254 eV
 added-field ion interaction        -20.479263 eV  (added to PSCEN)


  free energy =  -0.131660373424E+04  energy without entropy=  -0.131637153350E+04


--------------------------------------------------------------------------------------------------------




------------------------ aborting loop because EDIFF is reached ----------------------------------------


    CHARGE:  cpu time    4.5009: real time    4.5028
    FORLOC:  cpu time    0.2077: real time    0.2077
    FORNL :  cpu time   16.7031: real time   16.7102
    STRESS:  cpu time   50.5511: real time   50.5654
    FORCOR:  cpu time    0.3374: real time    0.3374
    FORHAR:  cpu time    0.2430: real time    0.2430
    MIXING:  cpu time    0.0062: real time    0.0062
    OFIELD:  cpu time    0.0001: real time    0.0001

  Number of pair interactions contributing to vdW energy: 1079232
  Edisp (eV):  -22.32643
    FORVDW:  cpu time    0.1726: real time    0.1726

  FORCE on cell =-STRESS in cart. coord.  units (eV):
  Direction    XX          YY          ZZ          XY          YZ          ZX
  --------------------------------------------------------------------------------------
  Alpha Z  5654.60063  5654.60063  5654.60063
  Ewald  448508.58360448500.75046************  2353.55216   -35.46227    17.07349
  Hartree485128.83550485157.07880************  2076.12255   -28.96948    12.13482
  E(xc)   -8751.89208 -8751.92471 -8805.32135     0.38686     0.02935     0.05242
  Local  ************************988740.27831 -4442.98904    65.42653   -29.68111
  n-local   738.62113   739.82425   617.73317     2.29955    -0.65579    -0.17828
  augment 10020.61898 10019.86997 10296.84495    -0.09774     0.22564     0.16351
  Kinetic 28679.85314 28678.35233 29390.46507    11.66156    -0.97303    -0.02733
  Fock        0.00000     0.00000     0.00000     0.00000     0.00000     0.00000
  vdW       -31.55631   -31.38564   -24.16935    -0.80680     0.06929     0.08283
  -------------------------------------------------------------------------------------
  Total    -213.55114  -213.75934    -3.16471     0.12910    -0.30976    -0.37965
  in kB     -52.27435   -52.32532    -0.77468     0.03160    -0.07582    -0.09293
  external pressure =      -35.12 kB  Pullay stress =        0.00 kB



--------------------------------------------------------------------------------------------------------



  FREE ENERGIE OF THE ION-ELECTRON SYSTEM (eV)
  ---------------------------------------------------
  free  energy   TOTEN  =     -1338.93016106 eV

  energy  without entropy=    -1338.69796031  energy(sigma->0) =    -1338.81406068
 
 d Force = 0.1152618E-04[ 0.178E-05, 0.213E-04]  d Energy = 0.2294220E-04-0.114E-04
 d Force = 0.2908193E+00[ 0.291E+00, 0.291E+00]  d Ewald  = 0.2908193E+00-0.531E-07


--------------------------------------------------------------------------------------------------------


    POTLOK:  cpu time    0.2277: real time    0.2280


--------------------------------------------------------------------------------------------------------




--------------------------------------------------------------------------------------------------------


    WAVPRE:  cpu time    0.1651: real time    0.1668
    FEWALD:  cpu time    0.0130: real time    0.0130
    ORTHCH:  cpu time   11.6535: real time   11.6561
     LOOP+:  cpu time  454.3899: real time  454.6229


--------------------------------------- Iteration      8(   1)  ---------------------------------------


    POTLOK:  cpu time    0.2054: real time    0.2060
    SETDIJ:  cpu time    0.0209: real time    0.0209
     EDDAV:  cpu time  104.7657: real time  104.7994
       DOS:  cpu time    0.0013: real time    0.0013
    CHARGE:  cpu time    4.5054: real time    4.5070
    MIXING:  cpu time    0.0052: real time    0.0052
    --------------------------------------------
      LOOP:  cpu time  109.5039: real time  109.5398

 eigenvalue-minimisations  : 12480
 total energy-change (2. order) :-0.1214895E-03  (-0.1429248E-02)
 number of electron    1994.0000646 magnetization 
 augmentation part      598.2257987 magnetization 

 DIPCOR: dipole corrections for dipol
 direction  3 min pos   154,
 dipolmoment           0.000000      0.000000     -0.706326 electrons x Angstroem
 Tr[quadrupol]   -130966.319762

 energy correction for charged system         0.000000 eV
 dipol+quadrupol energy correction           -0.007253 eV
 added-field ion interaction        -20.477947 eV  (added to PSCEN)


  free energy =  -0.131660385316E+04  energy without entropy=  -0.131637165010E+04


--------------------------------------------------------------------------------------------------------




--------------------------------------- Iteration      8(   2)  ---------------------------------------


    POTLOK:  cpu time    0.2006: real time    0.2009
    SETDIJ:  cpu time    0.0613: real time    0.0613
    EDDIAG:  cpu time   19.2934: real time   19.3013
  RMM-DIIS:  cpu time   47.3459: real time   47.3632
    ORTHCH:  cpu time    6.2477: real time    6.2494
       DOS:  cpu time    0.0013: real time    0.0013
    CHARGE:  cpu time    4.4995: real time    4.5008
    MIXING:  cpu time    0.0056: real time    0.0056
    --------------------------------------------
      LOOP:  cpu time   77.6552: real time   77.6837

 eigenvalue-minimisations  : 11952
 total energy-change (2. order) :-0.5348312E-04  (-0.2178298E-04)
 number of electron    1994.0000646 magnetization 
 augmentation part      598.2258509 magnetization 

 DIPCOR: dipole corrections for dipol
 direction  3 min pos   154,
 dipolmoment           0.000000      0.000000     -0.706370 electrons x Angstroem
 Tr[quadrupol]   -130966.322056

 energy correction for charged system         0.000000 eV
 dipol+quadrupol energy correction           -0.007254 eV
 added-field ion interaction        -20.479215 eV  (added to PSCEN)


 eigenvalues of (default mixing * dielectric matrix)
  average eigenvalue GAMMA=   0.0775
  0.0775

  free energy =  -0.131660390664E+04  energy without entropy=  -0.131637170120E+04


--------------------------------------------------------------------------------------------------------




--------------------------------------- Iteration      8(   3)  ---------------------------------------


    POTLOK:  cpu time    0.2064: real time    0.2066
    SETDIJ:  cpu time    0.0209: real time    0.0209
    EDDIAG:  cpu time   19.3638: real time   19.3723
  RMM-DIIS:  cpu time   24.8498: real time   24.8596
    ORTHCH:  cpu time    6.2358: real time    6.2379
       DOS:  cpu time    0.0013: real time    0.0013
    CHARGE:  cpu time    4.5159: real time    4.5171
    MIXING:  cpu time    0.0060: real time    0.0060
    --------------------------------------------
      LOOP:  cpu time   55.2000: real time   55.2216

 eigenvalue-minimisations  :  6191
 total energy-change (2. order) : 0.2860447E-04  (-0.1324640E-05)
 number of electron    1994.0000646 magnetization 
 augmentation part      598.2258254 magnetization 

 DIPCOR: dipole corrections for dipol
 direction  3 min pos   154,
 dipolmoment           0.000000      0.000000     -0.706287 electrons x Angstroem
 Tr[quadrupol]   -130966.322549

 energy correction for charged system         0.000000 eV
 dipol+quadrupol energy correction           -0.007253 eV
 added-field ion interaction        -20.476813 eV  (added to PSCEN)


 eigenvalues of (default mixing * dielectric matrix)
  average eigenvalue GAMMA=   0.2021
  0.3379  0.0663

  free energy =  -0.131660387804E+04  energy without entropy=  -0.131637166963E+04


--------------------------------------------------------------------------------------------------------




--------------------------------------- Iteration      8(   4)  ---------------------------------------


    POTLOK:  cpu time    0.2027: real time    0.2030
    SETDIJ:  cpu time    0.0203: real time    0.0203
    EDDIAG:  cpu time   19.3808: real time   19.3886
  RMM-DIIS:  cpu time   25.1161: real time   25.1346
    ORTHCH:  cpu time    6.2828: real time    6.2854
       DOS:  cpu time    0.0013: real time    0.0013
    CHARGE:  cpu time    4.5033: real time    4.5058
    MIXING:  cpu time    0.0061: real time    0.0061
    --------------------------------------------
      LOOP:  cpu time   55.5133: real time   55.5450

 eigenvalue-minimisations  :  6110
 total energy-change (2. order) : 0.1755980E-05  (-0.5606990E-06)
 number of electron    1994.0000646 magnetization 
 augmentation part      598.2257614 magnetization 

 DIPCOR: dipole corrections for dipol
 direction  3 min pos   154,
 dipolmoment           0.000000      0.000000     -0.706317 electrons x Angstroem
 Tr[quadrupol]   -130966.323704

 energy correction for charged system         0.000000 eV
 dipol+quadrupol energy correction           -0.007253 eV
 added-field ion interaction        -20.477679 eV  (added to PSCEN)


 eigenvalues of (default mixing * dielectric matrix)
  average eigenvalue GAMMA=   0.3660
  0.8423  0.0618  0.1939

  free energy =  -0.131660387628E+04  energy without entropy=  -0.131637167227E+04


--------------------------------------------------------------------------------------------------------




--------------------------------------- Iteration      8(   5)  ---------------------------------------


    POTLOK:  cpu time    0.2023: real time    0.2033
    SETDIJ:  cpu time    0.0206: real time    0.0206
    EDDIAG:  cpu time   19.3572: real time   19.3650
  RMM-DIIS:  cpu time   25.2172: real time   25.2292
    ORTHCH:  cpu time    6.3766: real time    6.3785
       DOS:  cpu time    0.0013: real time    0.0013
    --------------------------------------------
      LOOP:  cpu time   51.1751: real time   51.1978

 eigenvalue-minimisations  :  6127
 total energy-change (2. order) : 0.2270099E-07  (-0.3668851E-06)
 number of electron    1994.0000646 magnetization 
 augmentation part      598.2257614 magnetization 

 DIPCOR: dipole corrections for dipol
 direction  3 min pos   154,
 dipolmoment           0.000000      0.000000     -0.706280 electrons x Angstroem
 Tr[quadrupol]   -130966.325290

 energy correction for charged system         0.000000 eV
 dipol+quadrupol energy correction           -0.007253 eV
 added-field ion interaction        -20.476621 eV  (added to PSCEN)


  free energy =  -0.131660387626E+04  energy without entropy=  -0.131637167419E+04


--------------------------------------------------------------------------------------------------------




------------------------ aborting loop because EDIFF is reached ----------------------------------------


    CHARGE:  cpu time    4.5222: real time    4.5241
    FORLOC:  cpu time    0.2083: real time    0.2083
    FORNL :  cpu time   17.0321: real time   17.0389
    STRESS:  cpu time   50.2184: real time   50.2358
    FORCOR:  cpu time    0.3508: real time    0.3509
    FORHAR:  cpu time    0.2450: real time    0.2450
    MIXING:  cpu time    0.0062: real time    0.0062
    OFIELD:  cpu time    0.0001: real time    0.0001

  Number of pair interactions contributing to vdW energy: 1079236
  Edisp (eV):  -22.32642
    FORVDW:  cpu time    0.1726: real time    0.1726

  FORCE on cell =-STRESS in cart. coord.  units (eV):
  Direction    XX          YY          ZZ          XY          YZ          ZX
  --------------------------------------------------------------------------------------
  Alpha Z  5654.60063  5654.60063  5654.60063
  Ewald  448508.64519448500.99345************  2353.71837   -35.40675    16.98014
  Hartree485129.50566485158.31508************  2076.20153   -29.09740    11.98465
  E(xc)   -8751.89055 -8751.92336 -8805.32058     0.38732     0.02906     0.05238
  Local  ************************988741.55910 -4443.21421    65.48710   -29.43205
  n-local   738.62504   739.84455   617.74392     2.30416    -0.66551    -0.17951
  augment 10020.61766 10019.87151 10296.84805    -0.09943     0.23073     0.16361
  Kinetic 28679.83656 28678.34117 29390.46481    11.64459    -0.96659    -0.02372
  Fock        0.00000     0.00000     0.00000     0.00000     0.00000     0.00000
  vdW       -31.55622   -31.38574   -24.16922    -0.80680     0.06942     0.08280
  -------------------------------------------------------------------------------------
  Total    -213.56434  -213.74163    -3.16039     0.13554    -0.31994    -0.37168
  in kB     -52.27758   -52.32098    -0.77362     0.03318    -0.07832    -0.09098
  external pressure =      -35.12 kB  Pullay stress =        0.00 kB



--------------------------------------------------------------------------------------------------------



  FREE ENERGIE OF THE ION-ELECTRON SYSTEM (eV)
  ---------------------------------------------------
  free  energy   TOTEN  =     -1338.93029841 eV

  energy  without entropy=    -1338.69809634  energy(sigma->0) =    -1338.81419737
 
 d Force = 0.1320182E-03[ 0.925E-04, 0.171E-03]  d Energy = 0.1373516E-03-0.533E-05
 d Force =-0.1191301E+00[-0.119E+00,-0.119E+00]  d Ewald  =-0.1191300E+00-0.110E-06


--------------------------------------------------------------------------------------------------------


    POTLOK:  cpu time    0.2250: real time    0.2262


--------------------------------------------------------------------------------------------------------


 Conjugate gradient step on ions:
 trial-energy change:   -0.000137  1 .order   -0.000132   -0.000171   -0.000093
  (g-gl).g = 0.160E-03      g.g   = 0.154E-03  gl.gl    = 0.454E-03
 g(Force)  = 0.154E-03   g(Stress)= 0.000E+00 ortho     =-0.632E-05
 gamma     =   0.35291
 trial     =   1.12966
 opt step  =   2.45360  (harmonic =   2.45360) maximal distance =0.00088697
 next E    = -1338.930347   (d E  =  -0.00019)


--------------------------------------------------------------------------------------------------------


  
 reached required accuracy - stopping structural energy minimisation
     LOOP+:  cpu time  422.1569: real time  422.3276
    4ORBIT:  cpu time    0.0000: real time    0.0000

 total amount of memory used by VASP MPI-rank0   491494. kBytes
=======================================================================

   base      :      30000. kBytes
   nonlr-proj:      87869. kBytes
   fftplans  :      12889. kBytes
   grid      :      65608. kBytes
   one-center:       3576. kBytes
   wavefun   :     291552. kBytes
 
  
  
 General timing and accounting informations for this job:
 ========================================================
  
                  Total CPU time used (sec):     7650.641
                            User time (sec):     7637.620
                          System time (sec):       13.020
                         Elapsed time (sec):     7666.614
  
                   Maximum memory used (kb):      997824.
                   Average memory used (kb):           0.
  
                          Minor page faults:       400327
                          Major page faults:            0
                 Voluntary context switches:         4332
