 vasp.5.4.4.18Apr17-6-g9f103f2a35 (build Jun 30 2017 19:19:18) complex          
  
 executed on         MareNostrum4 date 2022.04.19  22:26:15
 running on   48 total cores
 distrk:  each k-point on   48 cores,    1 groups
 distr:  one band on NCORES_PER_BAND=   1 cores,   48 groups


--------------------------------------------------------------------------------------------------------


 INCAR:
 POTCAR:    PAW_PBE Ru 04Feb2005                  
 POTCAR:    PAW_PBE C 08Apr2002                   
 POTCAR:    PAW_PBE H 15Jun2001                   
 POTCAR:    PAW_PBE O 08Apr2002                   

 ----------------------------------------------------------------------------- 
|                                                                             |
|           W    W    AA    RRRRR   N    N  II  N    N   GGGG   !!!           |
|           W    W   A  A   R    R  NN   N  II  NN   N  G    G  !!!           |
|           W    W  A    A  R    R  N N  N  II  N N  N  G       !!!           |
|           W WW W  AAAAAA  RRRRR   N  N N  II  N  N N  G  GGG   !            |
|           WW  WW  A    A  R   R   N   NN  II  N   NN  G    G                |
|           W    W  A    A  R    R  N    N  II  N    N   GGGG   !!!           |
|                                                                             |
|      For optimal performance we recommend to set                            |
|        NCORE= 4 - approx SQRT( number of cores)                             |
|      NCORE specifies how many cores store one orbital (NPAR=cpu/NCORE).     |
|      This setting can  greatly improve the performance of VASP for DFT.     |
|      The default,   NCORE=1            might be grossly inefficient         |
|      on modern multi-core architectures or massively parallel machines.     |
|      Do your own testing !!!!                                               |
|      Unfortunately you need to use the default for GW and RPA calculations. |
|      (for HF NCORE is supported but not extensively tested yet)             |
|                                                                             |
 ----------------------------------------------------------------------------- 

 POTCAR:    PAW_PBE Ru 04Feb2005                  
  local pseudopotential read in
  partial core-charges read in
  partial kinetic energy density read in
  atomic valenz-charges read in
  non local Contribution for L=           2  read in
    real space projection operators read in
  non local Contribution for L=           2  read in
    real space projection operators read in
  non local Contribution for L=           0  read in
    real space projection operators read in
  non local Contribution for L=           0  read in
    real space projection operators read in
  non local Contribution for L=           1  read in
    real space projection operators read in
  non local Contribution for L=           1  read in
    real space projection operators read in
    PAW grid and wavefunctions read in
 
   number of l-projection  operators is LMAX  =           6
   number of lm-projection operators is LMMAX =          18
 
 POTCAR:    PAW_PBE C 08Apr2002                   
  local pseudopotential read in
  partial core-charges read in
  partial kinetic energy density read in
  atomic valenz-charges read in
  non local Contribution for L=           0  read in
    real space projection operators read in
  non local Contribution for L=           0  read in
    real space projection operators read in
  non local Contribution for L=           1  read in
    real space projection operators read in
  non local Contribution for L=           1  read in
    real space projection operators read in
    PAW grid and wavefunctions read in
 
   number of l-projection  operators is LMAX  =           4
   number of lm-projection operators is LMMAX =           8
 
 POTCAR:    PAW_PBE H 15Jun2001                   
  local pseudopotential read in
  atomic valenz-charges read in
  non local Contribution for L=           0  read in
    real space projection operators read in
  non local Contribution for L=           0  read in
    real space projection operators read in
  non local Contribution for L=           1  read in
    real space projection operators read in
    PAW grid and wavefunctions read in
 
   number of l-projection  operators is LMAX  =           3
   number of lm-projection operators is LMMAX =           5
 
 POTCAR:    PAW_PBE O 08Apr2002                   
  local pseudopotential read in
  partial core-charges read in
  partial kinetic energy density read in
  kinetic energy density of atom read in
  atomic valenz-charges read in
  non local Contribution for L=           0  read in
    real space projection operators read in
  non local Contribution for L=           0  read in
    real space projection operators read in
  non local Contribution for L=           1  read in
    real space projection operators read in
  non local Contribution for L=           1  read in
    real space projection operators read in
    PAW grid and wavefunctions read in
 
   number of l-projection  operators is LMAX  =           4
   number of lm-projection operators is LMMAX =           8
 
 Optimization of the real space projectors (new method)

 maximal supplied QI-value         = 13.98
 optimisation between [QCUT,QGAM] = [ 10.77, 21.68] = [ 32.47,131.56] Ry 
 Optimized for a Real-space Cutoff    1.51 Angstroem

   l    n(q)    QCUT    max X(q) W(low)/X(q) W(high)/X(q)  e(spline) 
   2      9    10.768    61.733    0.26E-03    0.97E-04    0.28E-06
   2      9    10.768    59.886    0.26E-03    0.10E-03    0.29E-06
   0     10    10.768    23.358    0.12E-03    0.28E-03    0.38E-06
   0     10    10.768    11.320    0.93E-04    0.23E-03    0.31E-06
   1      9    10.768    14.765    0.48E-03    0.21E-03    0.19E-06
   1      9    10.768     8.283    0.36E-03    0.16E-03    0.15E-06
 Optimization of the real space projectors (new method)

 maximal supplied QI-value         = 25.13
 optimisation between [QCUT,QGAM] = [ 10.81, 21.61] = [ 32.71,130.83] Ry 
 Optimized for a Real-space Cutoff    1.23 Angstroem

   l    n(q)    QCUT    max X(q) W(low)/X(q) W(high)/X(q)  e(spline) 
   0      8    10.807   115.676    0.36E-03    0.72E-03    0.24E-06
   0      8    10.807    87.132    0.35E-03    0.71E-03    0.24E-06
   1      7    10.807     4.429    0.19E-03    0.39E-03    0.11E-06
   1      7    10.807     2.733    0.14E-03    0.28E-03    0.13E-06
 Optimization of the real space projectors (new method)

 maximal supplied QI-value         = 34.20
 optimisation between [QCUT,QGAM] = [ 10.60, 21.55] = [ 31.48,130.03] Ry 
 Optimized for a Real-space Cutoff    1.23 Angstroem

   l    n(q)    QCUT    max X(q) W(low)/X(q) W(high)/X(q)  e(spline) 
   0      8    10.603    19.460    0.37E-03    0.59E-03    0.23E-06
   0      8    10.603    12.209    0.35E-03    0.56E-03    0.22E-06
   1      7    10.603     4.655    0.70E-04    0.28E-03    0.29E-06
 Optimization of the real space projectors (new method)

 maximal supplied QI-value         = 24.76
 optimisation between [QCUT,QGAM] = [ 10.64, 21.54] = [ 31.73,129.89] Ry 
 Optimized for a Real-space Cutoff    1.23 Angstroem

   l    n(q)    QCUT    max X(q) W(low)/X(q) W(high)/X(q)  e(spline) 
   0      8    10.645    20.381    0.38E-03    0.60E-03    0.15E-06
   0      8    10.645    15.268    0.40E-03    0.65E-03    0.17E-06
   1      7    10.645     5.964    0.30E-03    0.63E-03    0.18E-06
   1      7    10.645     5.382    0.24E-03    0.53E-03    0.16E-06
  PAW_PBE Ru 04Feb2005                  :
 energy of atom  1       EATOM= -454.8837
 kinetic energy error for atom=    0.0028 (will be added to EATOM!!)
  PAW_PBE C 08Apr2002                   :
 energy of atom  2       EATOM= -147.1560
 kinetic energy error for atom=    0.0116 (will be added to EATOM!!)
  PAW_PBE H 15Jun2001                   :
 energy of atom  3       EATOM=  -12.4884
 kinetic energy error for atom=    0.0045 (will be added to EATOM!!)
  PAW_PBE O 08Apr2002                   :
 energy of atom  4       EATOM= -432.3788
 kinetic energy error for atom=    0.0389 (will be added to EATOM!!)
 
 
 POSCAR: Ru  C  H  O                             
  positions in cartesian coordinates
  No initial velocities read in
 exchange correlation table for  LEXCH =        8
   RHO(1)=    0.500       N(1)  =     2000
   RHO(2)=  100.500       N(2)  =     4000
 


--------------------------------------------------------------------------------------------------------


 ion  position               nearest neighbor table
   1  0.048  0.167  0.200- 122 2.44  30 2.66  53 2.66  29 2.66   2 2.71   4 2.71   6 2.71  28 2.71
                            25 2.71   5 2.71
   2  0.048  0.417  0.200-  31 2.66  54 2.66  30 2.66   3 2.71   1 2.71  25 2.71   7 2.71  26 2.71
                             6 2.71
   3  0.048  0.667  0.200-  32 2.66  55 2.66  31 2.66   4 2.71   2 2.71  26 2.71   8 2.71  27 2.71
                             7 2.71
   4  0.048  0.917  0.200-  29 2.66  56 2.66  32 2.66   3 2.71   1 2.71  27 2.71   5 2.71  28 2.71
                             8 2.71
   5  0.190  0.167  0.200-  85 2.15  90 2.57  86 2.59  34 2.66  29 2.66  33 2.66  10 2.71   8 2.71
                             6 2.71   4 2.71   9 2.71   1 2.71
   6  0.190  0.417  0.200-  89 2.13  88 2.51  90 2.57  35 2.66  30 2.66  34 2.66  11 2.71   7 2.71
                             5 2.71   1 2.71  10 2.71   2 2.71
   7  0.190  0.667  0.200-  36 2.66  31 2.66  35 2.66  12 2.71   6 2.71   8 2.71   2 2.71  11 2.71
                             3 2.71
   8  0.190  0.917  0.200-  33 2.66  32 2.66  36 2.66   9 2.71   5 2.71   7 2.71   3 2.71  12 2.71
                             4 2.71
   9  0.333  0.167  0.200-  86 2.63  38 2.66  33 2.66  37 2.66   8 2.71  10 2.71  12 2.71  14 2.71
                             5 2.71  13 2.71
  10  0.333  0.417  0.200-  87 2.16  86 2.49  88 2.49  39 2.66  34 2.66  38 2.66   5 2.71   9 2.71
                            11 2.71  15 2.71   6 2.71  14 2.71
  11  0.333  0.667  0.200-  88 2.59  40 2.66  35 2.66  39 2.66   6 2.71  10 2.71  12 2.71  16 2.71
                             7 2.71  15 2.71
  12  0.333  0.917  0.200-  37 2.66  36 2.66  40 2.66   7 2.71  11 2.71   9 2.71  13 2.71   8 2.71
                            16 2.71
  13  0.476  0.167  0.200-  95 2.17  94 2.56  42 2.66  37 2.66  41 2.66  18 2.71  14 2.71  16 2.71
                            12 2.71  17 2.71   9 2.71
  14  0.476  0.417  0.200- 124 2.23  43 2.66  38 2.66  42 2.66  94 2.71  19 2.71  13 2.71  15 2.71
                             9 2.71  18 2.71  10 2.71
  15  0.476  0.667  0.200-  44 2.66  39 2.66  43 2.66  20 2.71  14 2.71  16 2.71  10 2.71  19 2.71
                            11 2.71
  16  0.476  0.917  0.200-  41 2.66  40 2.66  44 2.66  17 2.71  13 2.71  15 2.71  11 2.71  20 2.71
                            12 2.71
  17  0.619  0.167  0.200-  99 2.21  97 2.40  46 2.66  41 2.66  45 2.66  16 2.71  20 2.71  18 2.71
                            22 2.71  13 2.71  21 2.71
  18  0.619  0.417  0.200-  96 2.20  98 2.44  94 2.58  47 2.66  42 2.66  46 2.66  13 2.71  17 2.71
                            19 2.71  23 2.71  14 2.71  22 2.71
  19  0.619  0.667  0.200-  48 2.66  43 2.66  47 2.66  14 2.71  20 2.71  18 2.71  24 2.71  15 2.71
                            23 2.71
  20  0.619  0.917  0.200-  45 2.66  44 2.66  48 2.66  15 2.71  19 2.71  17 2.71  21 2.71  16 2.71
                            24 2.71
  21  0.762  0.167  0.200-  50 2.66  45 2.66  49 2.66  26 2.71  22 2.71  24 2.71  20 2.71  25 2.71
                            17 2.71
  22  0.762  0.417  0.200-  98 2.61  51 2.66  46 2.66  50 2.66  27 2.71  23 2.71  21 2.71  17 2.71
                            26 2.71  18 2.71
  23  0.762  0.667  0.200-  52 2.66  47 2.66  51 2.66  28 2.71  22 2.71  24 2.71  18 2.71  27 2.71
                            19 2.71
  24  0.762  0.917  0.200-  49 2.66  48 2.66  52 2.66  25 2.71  21 2.71  23 2.71  19 2.71  28 2.71
                            20 2.71
  25  0.905  0.167  0.200-  54 2.66  49 2.66  53 2.66  24 2.71  28 2.71  26 2.71   2 2.71  21 2.71
                             1 2.71
  26  0.905  0.417  0.200-  55 2.66  50 2.66  54 2.66  21 2.71  27 2.71  25 2.71   3 2.71  22 2.71
                             2 2.71
  27  0.905  0.667  0.200-  56 2.66  51 2.66  55 2.66  22 2.71  28 2.71  26 2.71   4 2.71  23 2.71
                             3 2.71
  28  0.905  0.917  0.200-  53 2.66  52 2.66  56 2.66  23 2.71  27 2.71  25 2.71   1 2.71  24 2.71
                             4 2.71
  29  0.095  0.083  0.100-   4 2.66   5 2.66   1 2.66  60 2.66  61 2.66  57 2.66  56 2.71  30 2.71
                            32 2.71  34 2.71  53 2.71  33 2.71
  30  0.095  0.333  0.100-   1 2.66   6 2.66   2 2.66  57 2.66  62 2.66  58 2.66  53 2.71  29 2.71
                            31 2.71  35 2.71  54 2.71  34 2.71
  31  0.095  0.583  0.100-   2 2.66   7 2.66   3 2.66  58 2.66  63 2.66  59 2.66  54 2.71  30 2.71
                            32 2.71  36 2.71  55 2.71  35 2.71
  32  0.095  0.833  0.100-   3 2.66   8 2.66   4 2.66  59 2.66  64 2.66  60 2.66  55 2.71  29 2.71
                            31 2.71  33 2.71  56 2.71  36 2.71
  33  0.238  0.083  0.100-   8 2.66   9 2.66   5 2.66  64 2.66  65 2.66  61 2.66  38 2.71  34 2.71
                            36 2.71  32 2.71  37 2.71  29 2.71
  34  0.238  0.333  0.100-   5 2.66  10 2.66   6 2.66  61 2.66  66 2.66  62 2.66  39 2.71  33 2.71
                            35 2.71  29 2.71  38 2.71  30 2.71
  35  0.238  0.583  0.100-   6 2.66  11 2.66   7 2.66  62 2.66  67 2.66  63 2.66  40 2.71  34 2.71
                            36 2.71  30 2.71  39 2.71  31 2.71
  36  0.238  0.833  0.100-   7 2.66  12 2.66   8 2.66  63 2.66  68 2.66  64 2.66  37 2.71  33 2.71
                            35 2.71  31 2.71  40 2.71  32 2.71
  37  0.381  0.083  0.100-  12 2.66  13 2.66   9 2.66  68 2.66  69 2.66  65 2.66  36 2.71  40 2.71
                            38 2.71  42 2.71  33 2.71  41 2.71
  38  0.381  0.333  0.100-   9 2.66  14 2.66  10 2.66  65 2.66  70 2.66  66 2.66  33 2.71  39 2.71
                            37 2.71  43 2.71  34 2.71  42 2.71
  39  0.381  0.583  0.100-  10 2.66  15 2.66  11 2.66  66 2.66  71 2.66  67 2.66  34 2.71  40 2.71
                            38 2.71  44 2.71  35 2.71  43 2.71
  40  0.381  0.833  0.100-  11 2.66  16 2.66  12 2.66  67 2.66  72 2.66  68 2.66  35 2.71  39 2.71
                            37 2.71  41 2.71  36 2.71  44 2.71
  41  0.524  0.083  0.100-  16 2.66  17 2.66  13 2.66  72 2.66  73 2.66  69 2.66  46 2.71  42 2.71
                            44 2.71  40 2.71  45 2.71  37 2.71
  42  0.524  0.333  0.100-  13 2.66  18 2.66  14 2.66  69 2.66  74 2.66  70 2.66  47 2.71  41 2.71
                            43 2.71  37 2.71  46 2.71  38 2.71
  43  0.524  0.583  0.100-  14 2.66  19 2.66  15 2.66  70 2.66  75 2.66  71 2.66  48 2.71  42 2.71
                            44 2.71  38 2.71  47 2.71  39 2.71
  44  0.524  0.833  0.100-  15 2.66  20 2.66  16 2.66  71 2.66  76 2.66  72 2.66  45 2.71  41 2.71
                            43 2.71  39 2.71  48 2.71  40 2.71
  45  0.667  0.083  0.100-  20 2.66  21 2.66  17 2.66  76 2.66  77 2.66  73 2.66  44 2.71  48 2.71
                            46 2.71  50 2.71  41 2.71  49 2.71
  46  0.667  0.333  0.100-  17 2.66  22 2.66  18 2.66  73 2.66  78 2.66  74 2.66  41 2.71  47 2.71
                            45 2.71  51 2.71  42 2.71  50 2.71
  47  0.667  0.583  0.100-  18 2.66  23 2.66  19 2.66  74 2.66  79 2.66  75 2.66  42 2.71  48 2.71
                            46 2.71  52 2.71  43 2.71  51 2.71
  48  0.667  0.833  0.100-  19 2.66  24 2.66  20 2.66  75 2.66  80 2.66  76 2.66  43 2.71  47 2.71
                            45 2.71  49 2.71  44 2.71  52 2.71
  49  0.810  0.083  0.100-  24 2.66  25 2.66  21 2.66  80 2.66  81 2.66  77 2.66  52 2.71  50 2.71
                            54 2.71  48 2.71  45 2.71  53 2.71
  50  0.810  0.333  0.100-  21 2.66  26 2.66  22 2.66  77 2.66  82 2.66  78 2.66  51 2.71  49 2.71
                            55 2.71  45 2.71  46 2.71  54 2.71
  51  0.810  0.583  0.100-  22 2.66  27 2.66  23 2.66  78 2.66  83 2.66  79 2.66  52 2.71  50 2.71
                            56 2.71  46 2.71  47 2.71  55 2.71
  52  0.810  0.833  0.100-  23 2.66  28 2.66  24 2.66  79 2.66  84 2.66  80 2.66  51 2.71  49 2.71
                            53 2.71  47 2.71  56 2.71  48 2.71
  53  0.952  0.083  0.100-  28 2.66   1 2.66  25 2.66  84 2.66  57 2.66  81 2.66  30 2.71  56 2.71
                            54 2.71  52 2.71  29 2.71  49 2.71
  54  0.952  0.333  0.100-  25 2.66   2 2.66  26 2.66  81 2.66  58 2.66  82 2.66  31 2.71  55 2.71
                            53 2.71  49 2.71  30 2.71  50 2.71
  55  0.952  0.583  0.100-  26 2.66   3 2.66  27 2.66  82 2.66  59 2.66  83 2.66  32 2.71  56 2.71
                            54 2.71  50 2.71  31 2.71  51 2.71
  56  0.952  0.833  0.100-  27 2.66   4 2.66  28 2.66  83 2.66  60 2.66  84 2.66  29 2.71  55 2.71
                            53 2.71  51 2.71  32 2.71  52 2.71
  57  0.048  0.167  0.000-  30 2.66  53 2.66  29 2.66  58 2.71  60 2.71  62 2.71  84 2.71  81 2.71
                            61 2.71
  58  0.048  0.417  0.000-  31 2.66  54 2.66  30 2.66  57 2.71  59 2.71  63 2.71  81 2.71  62 2.71
                            82 2.71
  59  0.048  0.667  0.000-  32 2.66  55 2.66  31 2.66  58 2.71  60 2.71  64 2.71  82 2.71  63 2.71
                            83 2.71
  60  0.048  0.917  0.000-  29 2.66  56 2.66  32 2.66  57 2.71  59 2.71  61 2.71  83 2.71  64 2.71
                            84 2.71
  61  0.190  0.167  0.000-  34 2.66  29 2.66  33 2.66  66 2.71  64 2.71  62 2.71  60 2.71  65 2.71
                            57 2.71
  62  0.190  0.417  0.000-  35 2.66  30 2.66  34 2.66  67 2.71  63 2.71  61 2.71  57 2.71  66 2.71
                            58 2.71
  63  0.190  0.667  0.000-  36 2.66  31 2.66  35 2.66  68 2.71  64 2.71  62 2.71  58 2.71  67 2.71
                            59 2.71
  64  0.190  0.917  0.000-  33 2.66  32 2.66  36 2.66  65 2.71  63 2.71  61 2.71  59 2.71  68 2.71
                            60 2.71
  65  0.333  0.167  0.000-  38 2.66  33 2.66  37 2.66  64 2.71  66 2.71  68 2.71  70 2.71  61 2.71
                            69 2.71
  66  0.333  0.417  0.000-  39 2.66  34 2.66  38 2.66  61 2.71  65 2.71  67 2.71  71 2.71  62 2.71
                            70 2.71
  67  0.333  0.667  0.000-  40 2.66  35 2.66  39 2.66  62 2.71  66 2.71  68 2.71  72 2.71  63 2.71
                            71 2.71
  68  0.333  0.917  0.000-  37 2.66  36 2.66  40 2.66  63 2.71  65 2.71  67 2.71  69 2.71  64 2.71
                            72 2.71
  69  0.476  0.167  0.000-  42 2.66  37 2.66  41 2.66  74 2.71  72 2.71  70 2.71  68 2.71  73 2.71
                            65 2.71
  70  0.476  0.417  0.000-  43 2.66  38 2.66  42 2.66  75 2.71  71 2.71  69 2.71  65 2.71  74 2.71
                            66 2.71
  71  0.476  0.667  0.000-  44 2.66  39 2.66  43 2.66  76 2.71  72 2.71  70 2.71  66 2.71  75 2.71
                            67 2.71
  72  0.476  0.917  0.000-  41 2.66  40 2.66  44 2.66  73 2.71  71 2.71  69 2.71  67 2.71  76 2.71
                            68 2.71
  73  0.619  0.167  0.000-  46 2.66  41 2.66  45 2.66  72 2.71  74 2.71  76 2.71  78 2.71  69 2.71
                            77 2.71
  74  0.619  0.417  0.000-  47 2.66  42 2.66  46 2.66  69 2.71  73 2.71  75 2.71  79 2.71  70 2.71
                            78 2.71
  75  0.619  0.667  0.000-  48 2.66  43 2.66  47 2.66  70 2.71  74 2.71  76 2.71  80 2.71  71 2.71
                            79 2.71
  76  0.619  0.917  0.000-  45 2.66  44 2.66  48 2.66  71 2.71  73 2.71  75 2.71  77 2.71  72 2.71
                            80 2.71
  77  0.762  0.167  0.000-  50 2.66  45 2.66  49 2.66  82 2.71  80 2.71  78 2.71  76 2.71  81 2.71
                            73 2.71
  78  0.762  0.417  0.000-  51 2.66  46 2.66  50 2.66  83 2.71  79 2.71  77 2.71  73 2.71  82 2.71
                            74 2.71
  79  0.762  0.667  0.000-  52 2.66  47 2.66  51 2.66  84 2.71  80 2.71  78 2.71  74 2.71  83 2.71
                            75 2.71
  80  0.762  0.917  0.000-  49 2.66  48 2.66  52 2.66  81 2.71  79 2.71  77 2.71  75 2.71  84 2.71
                            76 2.71
  81  0.905  0.167  0.000-  54 2.66  49 2.66  53 2.66  80 2.71  82 2.71  84 2.71  58 2.71  77 2.71
                            57 2.71
  82  0.905  0.417  0.000-  55 2.66  50 2.66  54 2.66  77 2.71  81 2.71  83 2.71  59 2.71  78 2.71
                            58 2.71
  83  0.905  0.667  0.000-  56 2.66  51 2.66  55 2.66  78 2.71  82 2.71  84 2.71  60 2.71  79 2.71
                            59 2.71
  84  0.905  0.917  0.000-  53 2.66  52 2.66  56 2.66  79 2.71  81 2.71  83 2.71  57 2.71  80 2.71
                            60 2.71
  85  0.199  0.182  0.300- 123 1.41  90 1.45  86 1.47   5 2.15
  86  0.287  0.264  0.295- 102 1.10  87 1.46  85 1.47  10 2.49   5 2.59   9 2.63
  87  0.332  0.419  0.301-  86 1.46  88 1.46  92 1.52  10 2.16
  88  0.284  0.490  0.293- 103 1.10  89 1.45  87 1.46  10 2.49   6 2.51  11 2.59
  89  0.196  0.414  0.299- 104 1.09  90 1.43  88 1.45   6 2.13
  90  0.156  0.262  0.298- 122 1.38  89 1.43  85 1.45   6 2.57   5 2.57
  91  0.192  0.975  0.348- 107 1.10 106 1.10 108 1.12 123 1.42
  92  0.410  0.504  0.338- 109 1.12 125 1.46  87 1.52  93 1.54
  93  0.459  0.434  0.358- 110 1.10 124 1.46  92 1.54 100 1.54
  94  0.527  0.323  0.298- 124 1.40  95 1.44  96 1.45  13 2.56  18 2.58  14 2.71
  95  0.496  0.172  0.300- 112 1.09  94 1.44  97 1.46  13 2.17
  96  0.614  0.426  0.302- 127 1.39  98 1.45  94 1.45  18 2.20
  97  0.554  0.122  0.300- 113 1.09  99 1.43  95 1.46  17 2.40
  98  0.669  0.373  0.297- 114 1.10  96 1.45  99 1.46  18 2.44  22 2.61
  99  0.639  0.220  0.301- 115 1.09  97 1.43  98 1.46  17 2.21
 100  0.421  0.321  0.410- 117 1.10 116 1.10 126 1.42  93 1.54
 101  0.714  0.643  0.351- 120 1.10 121 1.10 119 1.11 127 1.43
 102  0.319  0.208  0.309-  86 1.10
 103  0.315  0.603  0.307-  88 1.10
 104  0.165  0.464  0.321-  89 1.09
 105  0.057  0.089  0.320- 122 0.99
 106  0.249  0.030  0.374-  91 1.10
 107  0.147  0.879  0.372-  91 1.10
 108  0.206  0.941  0.302-  91 1.12
 109  0.451  0.600  0.310-  92 1.12
 110  0.519  0.517  0.375-  93 1.10
 111  0.435  0.647  0.405- 125 0.97
 112  0.436  0.107  0.322-  95 1.09
 113  0.532  0.012  0.315-  97 1.09
 114  0.732  0.444  0.312-  98 1.10
 115  0.681  0.186  0.318-  99 1.09
 116  0.356  0.246  0.400- 100 1.10
 117  0.453  0.260  0.411- 100 1.10
 118  0.405  0.443  0.466- 126 0.98
 119  0.759  0.673  0.312- 101 1.11
 120  0.718  0.740  0.369- 101 1.10
 121  0.729  0.588  0.388- 101 1.10
 122  0.074  0.190  0.312- 105 0.99  90 1.38   1 2.44
 123  0.157  0.062  0.339-  85 1.41  91 1.42
 124  0.470  0.369  0.302-  94 1.40  93 1.46  14 2.23
 125  0.390  0.552  0.396- 111 0.97  92 1.46
 126  0.431  0.385  0.469- 118 0.98 100 1.42
 127  0.632  0.555  0.330-  96 1.39 101 1.43
 
  Warning from LATTYP: Monoclinic adjustement (A1->A3, A2->A1, A3->A2)!
  Warning from LATTYP: Got some problem with cell dimensions!
  Tried to take original basis but could not verify dimensions!
  LATTYP: Found a simple monoclinic cell.
 ALAT       =    20.4796808342
 B/A-ratio  =     1.0467134775
 C/A-ratio  =     1.7371079010
 COS(beta)  =    -0.9695485959
  
  Lattice vectors:
  
 A1 = (  -8.1377999784, -18.7934440320,   0.0000000000)
 A2 = (   0.0000000000,   0.0000000000, -21.4363579450)
 A3 = (  21.7007999424,  28.1901660480,   0.0000000000)


Analysis of symmetry for initial positions (statically):
=====================================================================
 Subroutine PRICEL returns:
 Original cell was already a primitive cell.
 

 Routine SETGRP: Setting up the symmetry group for a 
 simple monoclinic supercell.


 Subroutine GETGRP returns: Found  1 space group operations
 (whereof  1 operations were pure point group operations)
 out of a pool of  4 trial point group operations.


The static configuration has the point symmetry C_1 .


Analysis of symmetry for dynamics (positions and initial velocities):
=====================================================================
 Subroutine PRICEL returns:
 Original cell was already a primitive cell.
 

 Routine SETGRP: Setting up the symmetry group for a 
 simple monoclinic supercell.


 Subroutine GETGRP returns: Found  1 space group operations
 (whereof  1 operations were pure point group operations)
 out of a pool of  4 trial point group operations.


The dynamic configuration has the point symmetry C_1 .


Analysis of constrained symmetry for selective dynamics:
=====================================================================
 Subroutine PRICEL returns:
 Original cell was already a primitive cell.
 

 Routine SETGRP: Setting up the symmetry group for a 
 simple monoclinic supercell.


 Subroutine GETGRP returns: Found  1 space group operations
 (whereof  1 operations were pure point group operations)
 out of a pool of  4 trial point group operations.


The constrained configuration has the point symmetry C_1 .


 Subroutine INISYM returns: Found  1 space group operations
 (whereof  1 operations are pure point group operations),
 and found     1 'primitive' translations

 
 
 KPOINTS: K-POINTS                                

Automatic generation of k-mesh.
Space group operators:
 irot       det(A)        alpha          n_x          n_y          n_z        tau_x        tau_y        tau_z
    1     1.000000     0.000000     1.000000     0.000000     0.000000     0.000000     0.000000     0.000000
 
 Subroutine IBZKPT returns following result:
 ===========================================
 
 Found      5 irreducible k-points:
 
 Following reciprocal coordinates:
            Coordinates               Weight
  0.000000  0.000000  0.000000      1.000000
  0.333333  0.000000  0.000000      2.000000
  0.000000  0.333333  0.000000      2.000000
  0.333333  0.333333  0.000000      2.000000
 -0.333333  0.333333  0.000000      2.000000
 
 Following cartesian coordinates:
            Coordinates               Weight
  0.000000  0.000000  0.000000      1.000000
  0.017555  0.010135  0.000000      2.000000
  0.000000  0.035473  0.000000      2.000000
  0.017555  0.045609  0.000000      2.000000
 -0.017555  0.025338  0.000000      2.000000
 


--------------------------------------------------------------------------------------------------------




 Dimension of arrays:
   k-points           NKPTS =      5   k-points in BZ     NKDIM =      5   number of bands    NBANDS=    480
   number of dos      NEDOS =    301   number of ions     NIONS =    127
   non local maximal  LDIM  =      6   non local SUM 2l+1 LMDIM =     18
   total plane-waves  NPLWV = 627200
   max r-space proj   IRMAX =   2409   max aug-charges    IRDMAX=  11289
   dimension x,y,z NGX =   100 NGY =   56 NGZ =  112
   dimension x,y,z NGXF=   200 NGYF=  112 NGZF=  224
   support grid    NGXF=   200 NGYF=  112 NGZF=  224
   ions per type =              84  17  20   6
   NGX,Y,Z   is equivalent  to a cutoff of   8.76,  8.58,  8.69 a.u.
   NGXF,Y,Z  is equivalent  to a cutoff of  17.51, 17.16, 17.37 a.u.

 SYSTEM =  x                                       
 POSCAR =  Ru  C  H  O                             

 Startparameter for this run:
   NWRITE =      0    write-flag & timer
   PREC   = normal    normal or accurate (medium, high low for compatibility)
   ISTART =      0    job   : 0-new  1-cont  2-samecut
   ICHARG =      2    charge: 1-file 2-atom 10-const
   ISPIN  =      1    spin polarized calculation?
   LNONCOLLINEAR =      F non collinear calculations
   LSORBIT =      F    spin-orbit coupling
   INIWAV =      1    electr: 0-lowe 1-rand  2-diag
   LASPH  =      F    aspherical Exc in radial PAW
   METAGGA=      F    non-selfconsistent MetaGGA calc.

 Electronic Relaxation 1
   ENCUT  =  450.0 eV  33.07 Ry    5.75 a.u.  32.84 18.77 37.08*2*pi/ulx,y,z
   ENINI  =  450.0     initial cutoff
   ENAUG  =  644.9 eV  augmentation charge cutoff
   NELM   =     50;   NELMIN=  5; NELMDL= -7     # of ELM steps 
   EDIFF  = 0.1E-04   stopping-criterion for ELM
   LREAL  =      T    real-space projection
   NLSPLINE    = F    spline interpolate recip. space projectors
   LCOMPAT=      F    compatible to vasp.4.4
   GGA_COMPAT  = T    GGA compatible to vasp.4.4-vasp.4.6
   LMAXPAW     = -100 max onsite density
   LMAXMIX     =    2 max onsite mixed and CHGCAR
   VOSKOWN=      0    Vosko Wilk Nusair interpolation
   ROPT   =   -0.00050  -0.00050  -0.00050  -0.00050
 Ionic relaxation
   EDIFFG = -.2E-01   stopping-criterion for IOM
   NSW    =    300    number of steps for IOM
   NBLOCK =      1;   KBLOCK =    300    inner block; outer block 
   IBRION =      2    ionic relax: 0-MD 1-quasi-New 2-CG
   NFREE  =      2    steps in history (QN), initial steepest desc. (CG)
   ISIF   =      2    stress and relaxation
   IWAVPR =     11    prediction:  0-non 1-charg 2-wave 3-comb
   ISYM   =      2    0-nonsym 1-usesym 2-fastsym
   LCORR  =      T    Harris-Foulkes like correction to forces

   POTIM  = 0.1500    time-step for ionic-motion
   TEIN   =    0.0    initial temperature
   TEBEG  =    0.0;   TEEND  =   0.0 temperature during run
   SMASS  =  -3.00    Nose mass-parameter (am)
   estimated Nose-frequenzy (Omega)   =  0.10E-29 period in steps =****** mass=  -0.824E-26a.u.
   SCALEE = 1.0000    scale energy and forces
   NPACO  =    256;   APACO  = 16.0  distance and # of slots for P.C.
   PSTRESS=    0.0 pullay stress

  Mass of Ions in am
   POMASS = 101.07 12.01  1.00 16.00
  Ionic Valenz
   ZVAL   =   8.00  4.00  1.00  6.00
  Atomic Wigner-Seitz radii
   RWIGS  =  -1.00 -1.00 -1.00 -1.00
  virtual crystal weights 
   VCA    =   1.00  1.00  1.00  1.00
   NELECT =     796.0000    total number of electrons
   NUPDOWN=      -1.0000    fix difference up-down

 DOS related values:
   EMIN   =  10.00;   EMAX   =-10.00  energy-range for DOS
   EFERMI =   0.00
   ISMEAR =     0;   SIGMA  =   0.03  broadening in eV -4-tet -1-fermi 0-gaus

 Electronic relaxation 2 (details)
   IALGO  =     68    algorithm
   LDIAG  =      T    sub-space diagonalisation (order eigenvalues)
   LSUBROT=      F    optimize rotation matrix (better conditioning)
   TURBO    =      0    0=normal 1=particle mesh
   IRESTART =      0    0=no restart 2=restart with 2 vectors
   NREBOOT  =      0    no. of reboots
   NMIN     =      0    reboot dimension
   EREF     =   0.00    reference energy to select bands
   IMIX   =      4    mixing-type and parameters
     AMIX     =   0.40;   BMIX     =  1.00
     AMIX_MAG =   1.60;   BMIX_MAG =  1.00
     AMIN     =   0.10
     WC   =   100.;   INIMIX=   1;  MIXPRE=   1;  MAXMIX= -45

 Intra band minimization:
   WEIMIN = 0.0010     energy-eigenvalue tresh-hold
   EBREAK =  0.52E-08  absolut break condition
   DEPER  =   0.30     relativ break condition  

   TIME   =   0.40     timestep for ELM

  volume/ion in A,a.u.               =      30.12       203.24
  Fermi-wavevector in a.u.,A,eV,Ry     =   0.970157  1.833331 12.805872  0.941205
  Thomas-Fermi vector in A             =   2.100269
 
 Write flags
   LWAVE        =      F    write WAVECAR
   LDOWNSAMPLE  =      F    k-point downsampling of WAVECAR
   LCHARG       =      F    write CHGCAR
   LVTOT        =      F    write LOCPOT, total local potential
   LVHAR        =      F    write LOCPOT, Hartree potential only
   LELF         =      F    write electronic localiz. function (ELF)
   LORBIT       =      0    0 simple, 1 ext, 2 COOP (PROOUT), +10 PAW based schemes


 Dipole corrections
   LMONO  =      F    monopole corrections only (constant potential shift)
   LDIPOL =      T    correct potential (dipole corrections)
   IDIPOL =      3    1-x, 2-y, 3-z, 4-all directions 
   EPSILON=  1.0000000 bulk dielectric constant

 Exchange correlation treatment:
   GGA     =    PE    GGA type
   LEXCH   =     8    internal setting for exchange type
   VOSKOWN=      0    Vosko Wilk Nusair interpolation
   LHFCALC =     F    Hartree Fock is set to
   LHFONE  =     F    Hartree Fock one center treatment
   AEXX    =    0.0000 exact exchange contribution

 Linear response parameters
   LEPSILON=     F    determine dielectric tensor
   LRPA    =     F    only Hartree local field effects (RPA)
   LNABLA  =     F    use nabla operator in PAW spheres
   LVEL    =     F    velocity operator in full k-point grid
   LINTERFAST=   F  fast interpolation
   KINTER  =     0    interpolate to denser k-point grid
   CSHIFT  =0.1000    complex shift for real part using Kramers Kronig
   OMEGAMAX=  -1.0    maximum frequency
   DEG_THRESHOLD= 0.2000000E-02 threshold for treating states as degnerate
   RTIME   =   -0.100 relaxation time in fs
  (WPLASMAI=    0.000 imaginary part of plasma frequency in eV, 0.658/RTIME)
   DFIELD  = 0.0000000 0.0000000 0.0000000 field for delta impulse in time
 
 Orbital magnetization related:
   ORBITALMAG=     F  switch on orbital magnetization
   LCHIMAG   =     F  perturbation theory with respect to B field
   DQ        =  0.001000  dq finite difference perturbation B field
   LLRAUG    =     F  two centre corrections for induced B field



--------------------------------------------------------------------------------------------------------


 conjugate gradient relaxation of ions
   using selective dynamics as specified on POSCAR
   WARNING: If single coordinates had been selected the selection of coordinates
            is made according to the corresponding   d i r e c t   coordinates!
            Don't support selection of single cartesian coordinates -- sorry ...
  !
 charge density and potential will be updated during run
 non-spin polarized calculation
 RMM-DIIS sequential band-by-band and
  variant of blocked Davidson during initial phase
 perform sub-space diagonalisation
    before iterative eigenvector-optimisation
 modified Broyden-mixing scheme, WC =      100.0
 initial mixing is a Kerker type mixing with AMIX =  0.4000 and BMIX =      1.0000
 Hartree-type preconditioning will be used
 using additional bands           82
 real space projection scheme for non local part
 use partial core corrections
 calculate Harris-corrections to forces 
   (improved forces if not selfconsistent)
 use gradient corrections 
 use of overlap-Matrix (Vanderbilt PP)
 Gauss-broadening in eV      SIGMA  =   0.03


--------------------------------------------------------------------------------------------------------


  energy-cutoff  :      450.00
  volume of cell :     3824.82
      direct lattice vectors                 reciprocal lattice vectors
    18.988199950  0.000000000  0.000000000     0.052664286  0.030405740  0.000000000
    -5.425199986  9.396722016  0.000000000     0.000000000  0.106420090  0.000000000
     0.000000000  0.000000000 21.436357945     0.000000000  0.000000000  0.046649716

  length of vectors
    18.988199950 10.850399971 21.436357945     0.060811480  0.106420090  0.046649716


 
 k-points in units of 2pi/SCALE and weight: K-POINTS                                
   0.00000000  0.00000000  0.00000000       0.111
   0.01755476  0.01013525  0.00000000       0.222
   0.00000000  0.03547336  0.00000000       0.222
   0.01755476  0.04560861  0.00000000       0.222
  -0.01755476  0.02533812  0.00000000       0.222
 
 k-points in reciprocal lattice and weights: K-POINTS                                
   0.00000000  0.00000000  0.00000000       0.111
   0.33333333  0.00000000  0.00000000       0.222
   0.00000000  0.33333333  0.00000000       0.222
   0.33333333  0.33333333  0.00000000       0.222
  -0.33333333  0.33333333  0.00000000       0.222
 
 position of ions in fractional coordinates (direct lattice) 
   0.04761857  0.16666751  0.20017397
   0.04761857  0.41666751  0.20017397
   0.04761857  0.66666751  0.20017397
   0.04761857  0.91666751  0.20017397
   0.19047572  0.16666751  0.20017397
   0.19047572  0.41666751  0.20017397
   0.19047572  0.66666751  0.20017397
   0.19047572  0.91666751  0.20017397
   0.33333286  0.16666751  0.20017397
   0.33333286  0.41666751  0.20017397
   0.33333286  0.66666751  0.20017397
   0.33333286  0.91666751  0.20017397
   0.47619000  0.16666751  0.20017397
   0.47619000  0.41666751  0.20017397
   0.47619000  0.66666751  0.20017397
   0.47619000  0.91666751  0.20017397
   0.61904714  0.16666751  0.20017397
   0.61904714  0.41666751  0.20017397
   0.61904714  0.66666751  0.20017397
   0.61904714  0.91666751  0.20017397
   0.76190429  0.16666751  0.20017397
   0.76190429  0.41666751  0.20017397
   0.76190429  0.66666751  0.20017397
   0.76190429  0.91666751  0.20017397
   0.90476143  0.16666751  0.20017397
   0.90476143  0.41666751  0.20017397
   0.90476143  0.66666751  0.20017397
   0.90476143  0.91666751  0.20017397
   0.09523857  0.08333250  0.10009367
   0.09523857  0.33333250  0.10009367
   0.09523857  0.58333250  0.10009367
   0.09523857  0.83333250  0.10009367
   0.23809572  0.08333250  0.10009367
   0.23809572  0.33333250  0.10009367
   0.23809572  0.58333250  0.10009367
   0.23809572  0.83333250  0.10009367
   0.38095286  0.08333250  0.10009367
   0.38095286  0.33333250  0.10009367
   0.38095286  0.58333250  0.10009367
   0.38095286  0.83333250  0.10009367
   0.52381000  0.08333250  0.10009367
   0.52381000  0.33333250  0.10009367
   0.52381000  0.58333250  0.10009367
   0.52381000  0.83333250  0.10009367
   0.66666715  0.08333250  0.10009367
   0.66666715  0.33333250  0.10009367
   0.66666715  0.58333250  0.10009367
   0.66666715  0.83333250  0.10009367
   0.80952429  0.08333250  0.10009367
   0.80952429  0.33333250  0.10009367
   0.80952429  0.58333250  0.10009367
   0.80952429  0.83333250  0.10009367
   0.95238143  0.08333250  0.10009367
   0.95238143  0.33333250  0.10009367
   0.95238143  0.58333250  0.10009367
   0.95238143  0.83333250  0.10009367
   0.04761857  0.16666751  0.00000002
   0.04761857  0.41666751  0.00000002
   0.04761857  0.66666751  0.00000002
   0.04761857  0.91666751  0.00000002
   0.19047572  0.16666751  0.00000002
   0.19047572  0.41666751  0.00000002
   0.19047572  0.66666751  0.00000002
   0.19047572  0.91666751  0.00000002
   0.33333286  0.16666751  0.00000002
   0.33333286  0.41666751  0.00000002
   0.33333286  0.66666751  0.00000002
   0.33333286  0.91666751  0.00000002
   0.47619000  0.16666751  0.00000002
   0.47619000  0.41666751  0.00000002
   0.47619000  0.66666751  0.00000002
   0.47619000  0.91666751  0.00000002
   0.61904714  0.16666751  0.00000002
   0.61904714  0.41666751  0.00000002
   0.61904714  0.66666751  0.00000002
   0.61904714  0.91666751  0.00000002
   0.76190429  0.16666751  0.00000002
   0.76190429  0.41666751  0.00000002
   0.76190429  0.66666751  0.00000002
   0.76190429  0.91666751  0.00000002
   0.90476143  0.16666751  0.00000002
   0.90476143  0.41666751  0.00000002
   0.90476143  0.66666751  0.00000002
   0.90476143  0.91666751  0.00000002
   0.19852231  0.18210376  0.30003059
   0.28738991  0.26428186  0.29497701
   0.33161085  0.41887299  0.30091025
   0.28422619  0.49008060  0.29276268
   0.19625729  0.41377827  0.29936090
   0.15589215  0.26151344  0.29837295
   0.19230416  0.97450801  0.34750702
   0.40985149  0.50436332  0.33788292
   0.45903314  0.43353281  0.35792685
   0.52748070  0.32329763  0.29776291
   0.49568247  0.17207093  0.30031693
   0.61359787  0.42641614  0.30227955
   0.55397233  0.12215429  0.29998675
   0.66941390  0.37280282  0.29739848
   0.63928445  0.22018729  0.30062781
   0.42097802  0.32089978  0.40976983
   0.71426377  0.64288613  0.35115697
   0.31930994  0.20750894  0.30850157
   0.31481496  0.60292539  0.30696437
   0.16517528  0.46447268  0.32087344
   0.05733943  0.08947290  0.32048691
   0.24946048  0.03000348  0.37445245
   0.14712171  0.87939397  0.37242257
   0.20639452  0.94106396  0.30182072
   0.45092198  0.60046271  0.30967059
   0.51863725  0.51740185  0.37456168
   0.43468264  0.64714764  0.40455451
   0.43600055  0.10666210  0.32152801
   0.53238461  0.01237386  0.31459140
   0.73244137  0.44371872  0.31208796
   0.68096931  0.18617292  0.31776323
   0.35613297  0.24564402  0.40005806
   0.45330810  0.26039478  0.41092569
   0.40536395  0.44330252  0.46591769
   0.75866935  0.67316996  0.31217806
   0.71750749  0.73994367  0.36937702
   0.72889535  0.58782339  0.38778443
   0.07370458  0.18996784  0.31245014
   0.15741241  0.06220965  0.33895126
   0.47040501  0.36883471  0.30180772
   0.38966882  0.55219150  0.39551745
   0.43133904  0.38509824  0.46941615
   0.63247274  0.55541800  0.32977300
 
 position of ions in cartesian coordinates  (Angst):
  -0.00001358  1.56612822  4.29100095
  -1.35631358  3.91530873  4.29100095
  -2.71261357  6.26448923  4.29100095
  -4.06891357  8.61366974  4.29100095
   2.71258641  1.56612822  4.29100095
   1.35628642  3.91530873  4.29100095
  -0.00001358  6.26448923  4.29100095
  -1.35631358  8.61366974  4.29100095
   5.42518640  1.56612822  4.29100095
   4.06888641  3.91530873  4.29100095
   2.71258641  6.26448923  4.29100095
   1.35628642  8.61366974  4.29100095
   8.13778640  1.56612822  4.29100095
   6.78148640  3.91530873  4.29100095
   5.42518640  6.26448923  4.29100095
   4.06888641  8.61366974  4.29100095
  10.85038639  1.56612822  4.29100095
   9.49408639  3.91530873  4.29100095
   8.13778640  6.26448923  4.29100095
   6.78148640  8.61366974  4.29100095
  13.56298638  1.56612822  4.29100095
  12.20668639  3.91530873  4.29100095
  10.85038639  6.26448923  4.29100095
   9.49408639  8.61366974  4.29100095
  16.27558638  1.56612822  4.29100095
  14.91928638  3.91530873  4.29100095
  13.56298638  6.26448923  4.29100095
  12.20668639  8.61366974  4.29100095
   1.35631362  0.78305235  2.14564370
   0.00001362  3.13223285  2.14564370
  -1.35628637  5.48141336  2.14564370
  -2.71258637  7.83059386  2.14564370
   4.06891361  0.78305235  2.14564370
   2.71261361  3.13223285  2.14564370
   1.35631362  5.48141336  2.14564370
   0.00001362  7.83059386  2.14564370
   6.78151360  0.78305235  2.14564370
   5.42521361  3.13223285  2.14564370
   4.06891361  5.48141336  2.14564370
   2.71261361  7.83059386  2.14564370
   9.49411360  0.78305235  2.14564370
   8.13781360  3.13223285  2.14564370
   6.78151360  5.48141336  2.14564370
   5.42521361  7.83059386  2.14564370
  12.20671359  0.78305235  2.14564370
  10.85041359  3.13223285  2.14564370
   9.49411360  5.48141336  2.14564370
   8.13781360  7.83059386  2.14564370
  14.91931358  0.78305235  2.14564370
  13.56301359  3.13223285  2.14564370
  12.20671359  5.48141336  2.14564370
  10.85041359  7.83059386  2.14564370
  17.63191357  0.78305235  2.14564370
  16.27561358  3.13223285  2.14564370
  14.91931358  5.48141336  2.14564370
  13.56301359  7.83059386  2.14564370
  -0.00001358  1.56612822  0.00000046
  -1.35631358  3.91530873  0.00000046
  -2.71261357  6.26448923  0.00000046
  -4.06891357  8.61366974  0.00000046
   2.71258641  1.56612822  0.00000046
   1.35628642  3.91530873  0.00000046
  -0.00001358  6.26448923  0.00000046
  -1.35631358  8.61366974  0.00000046
   5.42518640  1.56612822  0.00000046
   4.06888641  3.91530873  0.00000046
   2.71258641  6.26448923  0.00000046
   1.35628642  8.61366974  0.00000046
   8.13778640  1.56612822  0.00000046
   6.78148640  3.91530873  0.00000046
   5.42518640  6.26448923  0.00000046
   4.06888641  8.61366974  0.00000046
  10.85038639  1.56612822  0.00000046
   9.49408639  3.91530873  0.00000046
   8.13778640  6.26448923  0.00000046
   6.78148640  8.61366974  0.00000046
  13.56298638  1.56612822  0.00000046
  12.20668639  3.91530873  0.00000046
  10.85038639  6.26448923  0.00000046
   9.49408639  8.61366974  0.00000046
  16.27558638  1.56612822  0.00000046
  14.91928638  3.91530873  0.00000046
  13.56298638  6.26448923  0.00000046
  12.20668639  8.61366974  0.00000046
   2.78163195  1.71117840  6.43156305
   4.02323514  2.48338318  6.32323279
   4.02422341  3.93603308  6.45041973
   2.73815856  4.60515113  6.27576566
   1.48174286  3.88815933  6.41720734
   1.54134861  2.45736908  6.39602927
  -1.63539097  9.15718091  7.44928493
   5.04607010  4.73936195  7.24297919
   6.36421088  4.07378730  7.67264817
   8.26195468  3.03793799  6.38295235
   8.47859870  1.61690272  6.43770119
   9.33772611  4.00691395  6.47977262
   9.85622599  1.14784993  6.43062327
  10.68843515  3.50312443  6.37514023
  10.94430079  2.06903876  6.44436543
   6.25266925  3.01540607  8.78397278
  10.07479754  6.04102225  7.52752647
   4.93734348  1.94990384  6.61315016
   2.70677852  5.66552232  6.58019818
   0.61652399  4.36452066  6.87835789
   0.60336421  0.84075199  6.87007207
   4.57403064  0.28193435  8.02689671
  -1.97731164  8.26342071  7.98338342
  -1.18639983  8.84291644  6.46993694
   5.30456650  5.64238117  6.63820966
   7.04097929  4.86188132  8.02923832
   4.74293550  6.08106651  8.67217534
   7.70020243  1.00227412  6.89238942
  10.04189481  0.11627370  6.74369377
  11.50048037  4.16950150  6.69002912
  11.92035610  1.74941516  6.81168631
   5.42965604  2.30824856  8.57578783
   7.19481114  2.44685740  8.80875021
   5.29212688  4.16559054  9.98757837
  10.75368368  6.32559094  6.69196058
   9.60983326  6.95304502  7.91809812
  10.65135114  5.52361294  8.31268579
   0.36890372  1.78507503  6.69779309
   2.65147856  0.58456680  7.26588049
   6.93114238  3.46583728  6.46965837
   4.40336010  5.18879004  8.47845371
   6.10111698  3.61866111 10.06257263
   8.99626504  5.21910855  7.06913201
 


--------------------------------------------------------------------------------------------------------


 k-point  1 :   0.0000 0.0000 0.0000  plane waves:   82945
 k-point  2 :   0.3333 0.0000 0.0000  plane waves:   82944
 k-point  3 :   0.0000 0.3333 0.0000  plane waves:   82913
 k-point  4 :   0.3333 0.3333 0.0000  plane waves:   82924
 k-point  5 :  -0.3333 0.3333 0.0000  plane waves:   82907

 maximum and minimum number of plane-waves per node :     82945    82907

 maximum number of plane-waves:     82945
 maximum index in each direction: 
   IXMAX=   33   IYMAX=   18   IZMAX=   37
   IXMIN=  -33   IYMIN=  -19   IZMIN=  -37


 serial   3D FFT for wavefunctions
 parallel 3D FFT for charge:
    minimum data exchange during FFTs selected (reduces bandwidth)


 total amount of memory used by VASP MPI-rank0   179459. kBytes
=======================================================================

   base      :      30000. kBytes
   nonlr-proj:      38718. kBytes
   fftplans  :       6642. kBytes
   grid      :      34272. kBytes
   one-center:       1975. kBytes
   wavefun   :      67852. kBytes
 
     INWAV:  cpu time    0.0000: real time    0.0003
 Broyden mixing: mesh for mixing (old mesh)
   NGX = 65   NGY = 37   NGZ = 75
  (NGX  =200   NGY  =112   NGZ  =224)
  gives a total of 180375 points

 initial charge density was supplied:
 charge density of overlapping atoms calculated
 number of electron     796.0000000 magnetization 
 keeping initial charge density in first step


--------------------------------------------------------------------------------------------------------


 Maximum index for non-local projection operator         2304
 Maximum index for augmentation-charges          841 (set IRDMAX)


--------------------------------------------------------------------------------------------------------


 First call to EWALD:  gamma=   0.113
 Maximum number of real-space cells 3x 4x 2
 Maximum number of reciprocal cells 3x 2x 4

    FEWALD:  cpu time    0.0045: real time    0.0045


--------------------------------------- Iteration      1(   1)  ---------------------------------------


    POTLOK:  cpu time    0.1053: real time    0.1230
    SETDIJ:  cpu time    0.0114: real time    0.0237
     EDDAV:  cpu time   18.5873: real time   18.7275
       DOS:  cpu time    0.0027: real time    0.0046
    --------------------------------------------
      LOOP:  cpu time   18.7068: real time   18.8788

 eigenvalue-minimisations  :  4800
 total energy-change (2. order) : 0.4909474E+04  (-0.3169070E+05)
 number of electron     796.0000000 magnetization 
 augmentation part      796.0000000 magnetization 

 DIPCOR: dipole corrections for dipol
 direction  3 min pos   147,
 dipolmoment           0.000000      0.000000     -0.001647 electrons x Angstroem
 Tr[quadrupol]    -33553.580937

 energy correction for charged system         0.000000 eV
 dipol+quadrupol energy correction           -0.000000 eV
 added-field ion interaction         -0.020419 eV  (added to PSCEN)


 Free energy of the ion-electron system (eV)
  ---------------------------------------------------
  alpha Z        PSCENC =      1114.30592548
  Ewald energy   TEWEN  =    172591.00742966
  -Hartree energ DENC   =   -217078.38563526
  -exchange      EXHF   =         0.00000000
  -V(xc)+E(xc)   XCENC  =     -2272.53325147
  PAW double counting   =     42830.63587090   -38757.41110574
  entropy T*S    EENTRO =        -0.02237574
  eigenvalues    EBANDS =      2926.71096269
  atomic energy  EATOM  =     43555.16572946
  Solvation  Ediel_sol  =         0.00000000
  ---------------------------------------------------
  free energy    TOTEN  =      4909.47354999 eV

  energy without entropy =     4909.49592573  energy(sigma->0) =     4909.48473786


--------------------------------------------------------------------------------------------------------




--------------------------------------- Iteration      1(   2)  ---------------------------------------


     EDDAV:  cpu time   19.9481: real time   20.0491
       DOS:  cpu time    0.0008: real time    0.0008
    --------------------------------------------
      LOOP:  cpu time   19.9488: real time   20.0499

 eigenvalue-minimisations  :  5280
 total energy-change (2. order) :-0.5342894E+04  (-0.5040502E+04)
 number of electron     796.0000000 magnetization 
 augmentation part      796.0000000 magnetization 

 DIPCOR: dipole corrections for dipol
 direction  3 min pos   147,
 dipolmoment           0.000000      0.000000     -0.001647 electrons x Angstroem
 Tr[quadrupol]    -33553.580937

 energy correction for charged system         0.000000 eV
 dipol+quadrupol energy correction           -0.000000 eV
 added-field ion interaction         -0.020419 eV  (added to PSCEN)


 Free energy of the ion-electron system (eV)
  ---------------------------------------------------
  alpha Z        PSCENC =      1114.30592548
  Ewald energy   TEWEN  =    172591.00742966
  -Hartree energ DENC   =   -217078.38563526
  -exchange      EXHF   =         0.00000000
  -V(xc)+E(xc)   XCENC  =     -2272.53325147
  PAW double counting   =     42830.63587090   -38757.41110574
  entropy T*S    EENTRO =        -0.03820932
  eigenvalues    EBANDS =     -2416.16767728
  atomic energy  EATOM  =     43555.16572946
  Solvation  Ediel_sol  =         0.00000000
  ---------------------------------------------------
  free energy    TOTEN  =      -433.42092357 eV

  energy without entropy =     -433.38271425  energy(sigma->0) =     -433.40181891


--------------------------------------------------------------------------------------------------------




--------------------------------------- Iteration      1(   3)  ---------------------------------------


     EDDAV:  cpu time   34.5694: real time   34.7599
       DOS:  cpu time    0.0015: real time    0.0015
    --------------------------------------------
      LOOP:  cpu time   34.5710: real time   34.7614

 eigenvalue-minimisations  :  8688
 total energy-change (2. order) :-0.5934970E+03  (-0.5732112E+03)
 number of electron     796.0000000 magnetization 
 augmentation part      796.0000000 magnetization 

 DIPCOR: dipole corrections for dipol
 direction  3 min pos   147,
 dipolmoment           0.000000      0.000000     -0.001647 electrons x Angstroem
 Tr[quadrupol]    -33553.580937

 energy correction for charged system         0.000000 eV
 dipol+quadrupol energy correction           -0.000000 eV
 added-field ion interaction         -0.020419 eV  (added to PSCEN)


 Free energy of the ion-electron system (eV)
  ---------------------------------------------------
  alpha Z        PSCENC =      1114.30592548
  Ewald energy   TEWEN  =    172591.00742966
  -Hartree energ DENC   =   -217078.38563526
  -exchange      EXHF   =         0.00000000
  -V(xc)+E(xc)   XCENC  =     -2272.53325147
  PAW double counting   =     42830.63587090   -38757.41110574
  entropy T*S    EENTRO =        -0.02572548
  eigenvalues    EBANDS =     -3009.67718119
  atomic energy  EATOM  =     43555.16572946
  Solvation  Ediel_sol  =         0.00000000
  ---------------------------------------------------
  free energy    TOTEN  =     -1026.91794363 eV

  energy without entropy =    -1026.89221815  energy(sigma->0) =    -1026.90508089


--------------------------------------------------------------------------------------------------------




--------------------------------------- Iteration      1(   4)  ---------------------------------------


     EDDAV:  cpu time   24.6056: real time   24.7475
       DOS:  cpu time    0.0014: real time    0.0014
    --------------------------------------------
      LOOP:  cpu time   24.6070: real time   24.7489

 eigenvalue-minimisations  :  6768
 total energy-change (2. order) :-0.3567282E+02  (-0.3493906E+02)
 number of electron     796.0000000 magnetization 
 augmentation part      796.0000000 magnetization 

 DIPCOR: dipole corrections for dipol
 direction  3 min pos   147,
 dipolmoment           0.000000      0.000000     -0.001647 electrons x Angstroem
 Tr[quadrupol]    -33553.580937

 energy correction for charged system         0.000000 eV
 dipol+quadrupol energy correction           -0.000000 eV
 added-field ion interaction         -0.020419 eV  (added to PSCEN)


 Free energy of the ion-electron system (eV)
  ---------------------------------------------------
  alpha Z        PSCENC =      1114.30592548
  Ewald energy   TEWEN  =    172591.00742966
  -Hartree energ DENC   =   -217078.38563526
  -exchange      EXHF   =         0.00000000
  -V(xc)+E(xc)   XCENC  =     -2272.53325147
  PAW double counting   =     42830.63587090   -38757.41110574
  entropy T*S    EENTRO =        -0.02894755
  eigenvalues    EBANDS =     -3045.34677671
  atomic energy  EATOM  =     43555.16572946
  Solvation  Ediel_sol  =         0.00000000
  ---------------------------------------------------
  free energy    TOTEN  =     -1062.59076122 eV

  energy without entropy =    -1062.56181367  energy(sigma->0) =    -1062.57628745


--------------------------------------------------------------------------------------------------------




--------------------------------------- Iteration      1(   5)  ---------------------------------------


     EDDAV:  cpu time   24.6337: real time   24.7917
       DOS:  cpu time    0.0009: real time    0.0009
    --------------------------------------------
      LOOP:  cpu time   24.6345: real time   24.7926

 eigenvalue-minimisations  :  6720
 total energy-change (2. order) :-0.1323639E+01  (-0.1306854E+01)
 number of electron     796.0000000 magnetization 
 augmentation part      796.0000000 magnetization 

 DIPCOR: dipole corrections for dipol
 direction  3 min pos   147,
 dipolmoment           0.000000      0.000000     -0.001647 electrons x Angstroem
 Tr[quadrupol]    -33553.580937

 energy correction for charged system         0.000000 eV
 dipol+quadrupol energy correction           -0.000000 eV
 added-field ion interaction         -0.020419 eV  (added to PSCEN)


 Free energy of the ion-electron system (eV)
  ---------------------------------------------------
  alpha Z        PSCENC =      1114.30592548
  Ewald energy   TEWEN  =    172591.00742966
  -Hartree energ DENC   =   -217078.38563526
  -exchange      EXHF   =         0.00000000
  -V(xc)+E(xc)   XCENC  =     -2272.53325147
  PAW double counting   =     42830.63587090   -38757.41110574
  entropy T*S    EENTRO =        -0.02954121
  eigenvalues    EBANDS =     -3046.66982216
  atomic energy  EATOM  =     43555.16572946
  Solvation  Ediel_sol  =         0.00000000
  ---------------------------------------------------
  free energy    TOTEN  =     -1063.91440033 eV

  energy without entropy =    -1063.88485913  energy(sigma->0) =    -1063.89962973


--------------------------------------------------------------------------------------------------------




--------------------------------------- Iteration      1(   6)  ---------------------------------------


     EDDAV:  cpu time   26.7732: real time   26.9144
       DOS:  cpu time    0.0008: real time    0.0008
    --------------------------------------------
      LOOP:  cpu time   26.7739: real time   26.9152

 eigenvalue-minimisations  :  7440
 total energy-change (2. order) :-0.7649812E-01  (-0.7604495E-01)
 number of electron     796.0000000 magnetization 
 augmentation part      796.0000000 magnetization 

 DIPCOR: dipole corrections for dipol
 direction  3 min pos   147,
 dipolmoment           0.000000      0.000000     -0.001647 electrons x Angstroem
 Tr[quadrupol]    -33553.580937

 energy correction for charged system         0.000000 eV
 dipol+quadrupol energy correction           -0.000000 eV
 added-field ion interaction         -0.020419 eV  (added to PSCEN)


 Free energy of the ion-electron system (eV)
  ---------------------------------------------------
  alpha Z        PSCENC =      1114.30592548
  Ewald energy   TEWEN  =    172591.00742966
  -Hartree energ DENC   =   -217078.38563526
  -exchange      EXHF   =         0.00000000
  -V(xc)+E(xc)   XCENC  =     -2272.53325147
  PAW double counting   =     42830.63587090   -38757.41110574
  entropy T*S    EENTRO =        -0.02956143
  eigenvalues    EBANDS =     -3046.74630006
  atomic energy  EATOM  =     43555.16572946
  Solvation  Ediel_sol  =         0.00000000
  ---------------------------------------------------
  free energy    TOTEN  =     -1063.99089846 eV

  energy without entropy =    -1063.96133703  energy(sigma->0) =    -1063.97611774


--------------------------------------------------------------------------------------------------------




--------------------------------------- Iteration      1(   7)  ---------------------------------------


     EDDAV:  cpu time   25.9520: real time   26.1084
       DOS:  cpu time    0.0008: real time    0.0008
    CHARGE:  cpu time    0.9161: real time    0.9265
    MIXING:  cpu time    0.0034: real time    0.0053
    --------------------------------------------
      LOOP:  cpu time   26.8725: real time   27.0411

 eigenvalue-minimisations  :  7152
 total energy-change (2. order) :-0.6237998E-02  (-0.6216749E-02)
 number of electron     796.0000077 magnetization 
 augmentation part      217.7397320 magnetization 

 DIPCOR: dipole corrections for dipol
 direction  3 min pos   147,
 dipolmoment           0.000000      0.000000     -0.001647 electrons x Angstroem
 Tr[quadrupol]    -33553.580937

 energy correction for charged system         0.000000 eV
 dipol+quadrupol energy correction           -0.000000 eV
 added-field ion interaction         -0.020419 eV  (added to PSCEN)


 Broyden mixing:
  rms(total) = 0.99242E+01    rms(broyden)= 0.99236E+01
  rms(prec ) = 0.10177E+02
  weight for this iteration     100.00

 Free energy of the ion-electron system (eV)
  ---------------------------------------------------
  alpha Z        PSCENC =      1114.30592548
  Ewald energy   TEWEN  =    172591.00742966
  -Hartree energ DENC   =   -217078.38563526
  -exchange      EXHF   =         0.00000000
  -V(xc)+E(xc)   XCENC  =     -2272.53325147
  PAW double counting   =     42830.63587090   -38757.41110574
  entropy T*S    EENTRO =        -0.02956264
  eigenvalues    EBANDS =     -3046.75253685
  atomic energy  EATOM  =     43555.16572946
  Solvation  Ediel_sol  =         0.00000000
  ---------------------------------------------------
  free energy    TOTEN  =     -1063.99713646 eV

  energy without entropy =    -1063.96757382  energy(sigma->0) =    -1063.98235514


--------------------------------------------------------------------------------------------------------




--------------------------------------- Iteration      1(   8)  ---------------------------------------


    POTLOK:  cpu time    0.0902: real time    0.0902
    SETDIJ:  cpu time    0.0109: real time    0.0109
    EDDIAG:  cpu time    3.4508: real time    3.4779
  RMM-DIIS:  cpu time    9.7970: real time    9.8734
    ORTHCH:  cpu time    0.8415: real time    0.8456
       DOS:  cpu time    0.0008: real time    0.0008
    CHARGE:  cpu time    0.9240: real time    0.9303
    MIXING:  cpu time    0.0032: real time    0.0104
    --------------------------------------------
      LOOP:  cpu time   15.1184: real time   15.2394

 eigenvalue-minimisations  :  4810
 total energy-change (2. order) : 0.6241078E+02  (-0.2122753E+02)
 number of electron     796.0000107 magnetization 
 augmentation part      231.9144268 magnetization 

 DIPCOR: dipole corrections for dipol
 direction  3 min pos   152,
 dipolmoment           0.000000      0.000000      0.753185 electrons x Angstroem
 Tr[quadrupol]    -33563.677770

 energy correction for charged system         0.000000 eV
 dipol+quadrupol energy correction           -0.013545 eV
 added-field ion interaction         23.036249 eV  (added to PSCEN)


 Broyden mixing:
  rms(total) = 0.36274E+01    rms(broyden)= 0.36272E+01
  rms(prec ) = 0.40752E+01
  weight for this iteration     100.00

 eigenvalues of (default mixing * dielectric matrix)
  average eigenvalue GAMMA=   1.3696
  1.3696

 Free energy of the ion-electron system (eV)
  ---------------------------------------------------
  alpha Z        PSCENC =      1137.34904900
  Ewald energy   TEWEN  =    172591.00742966
  -Hartree energ DENC   =   -217023.02254650
  -exchange      EXHF   =         0.00000000
  -V(xc)+E(xc)   XCENC  =     -2265.68517986
  PAW double counting   =     50324.81141462   -46349.80212487
  entropy T*S    EENTRO =        -0.02582324
  eigenvalues    EBANDS =     -2971.38430514
  atomic energy  EATOM  =     43555.16572946
  Solvation  Ediel_sol  =         0.00000000
  ---------------------------------------------------
  free energy    TOTEN  =     -1001.58635687 eV

  energy without entropy =    -1001.56053363  energy(sigma->0) =    -1001.57344525


--------------------------------------------------------------------------------------------------------




--------------------------------------- Iteration      1(   9)  ---------------------------------------


    POTLOK:  cpu time    0.0914: real time    0.0921
    SETDIJ:  cpu time    0.0109: real time    0.0109
    EDDIAG:  cpu time    3.4571: real time    3.4816
  RMM-DIIS:  cpu time   11.4077: real time   11.5050
    ORTHCH:  cpu time    0.8562: real time    0.8602
       DOS:  cpu time    0.0025: real time    0.0025
    CHARGE:  cpu time    1.0183: real time    1.1097
    MIXING:  cpu time    0.0031: real time    0.0155
    --------------------------------------------
      LOOP:  cpu time   16.8473: real time   17.0776

 eigenvalue-minimisations  :  5610
 total energy-change (2. order) :-0.2757968E+03  (-0.6018867E+02)
 number of electron     796.0000106 magnetization 
 augmentation part      245.0391321 magnetization 

 DIPCOR: dipole corrections for dipol
 direction  3 min pos   148,
 dipolmoment           0.000000      0.000000     -5.840426 electrons x Angstroem
 Tr[quadrupol]    -33554.927005

 energy correction for charged system         0.000000 eV
 dipol+quadrupol energy correction           -0.814428 eV
 added-field ion interaction        -93.651199 eV  (added to PSCEN)


 Broyden mixing:
  rms(total) = 0.10862E+02    rms(broyden)= 0.10862E+02
  rms(prec ) = 0.17578E+02
  weight for this iteration     100.00

 eigenvalues of (default mixing * dielectric matrix)
  average eigenvalue GAMMA=   0.8202
  1.4926  0.1478

 Free energy of the ion-electron system (eV)
  ---------------------------------------------------
  alpha Z        PSCENC =      1019.86071707
  Ewald energy   TEWEN  =    172591.00742966
  -Hartree energ DENC   =   -216913.49183665
  -exchange      EXHF   =         0.00000000
  -V(xc)+E(xc)   XCENC  =     -2260.08781696
  PAW double counting   =     56298.48430752   -52388.84135029
  entropy T*S    EENTRO =        -0.02060537
  eigenvalues    EBANDS =     -3179.45973222
  atomic energy  EATOM  =     43555.16572946
  Solvation  Ediel_sol  =         0.00000000
  ---------------------------------------------------
  free energy    TOTEN  =     -1277.38315777 eV

  energy without entropy =    -1277.36255240  energy(sigma->0) =    -1277.37285509


--------------------------------------------------------------------------------------------------------




--------------------------------------- Iteration      1(  10)  ---------------------------------------


    POTLOK:  cpu time    0.1004: real time    0.1133
    SETDIJ:  cpu time    0.0136: real time    0.0399
    EDDIAG:  cpu time    3.3938: real time    4.0499
  RMM-DIIS:  cpu time   10.0120: real time   10.1020
    ORTHCH:  cpu time    0.8430: real time    0.8435
       DOS:  cpu time    0.0008: real time    0.0008
    CHARGE:  cpu time    0.9215: real time    0.9289
    MIXING:  cpu time    0.0032: real time    0.0032
    --------------------------------------------
      LOOP:  cpu time   15.2884: real time   16.0814

 eigenvalue-minimisations  :  4963
 total energy-change (2. order) : 0.2757714E+03  (-0.1537467E+02)
 number of electron     796.0000110 magnetization 
 augmentation part      238.0848408 magnetization 

 DIPCOR: dipole corrections for dipol
 direction  3 min pos   152,
 dipolmoment           0.000000      0.000000     -0.366888 electrons x Angstroem
 Tr[quadrupol]    -33573.353139

 energy correction for charged system         0.000000 eV
 dipol+quadrupol energy correction           -0.003214 eV
 added-field ion interaction        -11.221318 eV  (added to PSCEN)


 Broyden mixing:
  rms(total) = 0.34214E+01    rms(broyden)= 0.34213E+01
  rms(prec ) = 0.46624E+01
  weight for this iteration     100.00

 eigenvalues of (default mixing * dielectric matrix)
  average eigenvalue GAMMA=   0.6477
  1.5262  0.2670  0.1498

 Free energy of the ion-electron system (eV)
  ---------------------------------------------------
  alpha Z        PSCENC =      1103.10181210
  Ewald energy   TEWEN  =    172591.00742966
  -Hartree energ DENC   =   -217194.40688525
  -exchange      EXHF   =         0.00000000
  -V(xc)+E(xc)   XCENC  =     -2259.60196923
  PAW double counting   =     57742.34845048   -53846.28858112
  entropy T*S    EENTRO =        -0.04034755
  eigenvalues    EBANDS =     -2692.89737176
  atomic energy  EATOM  =     43555.16572946
  Solvation  Ediel_sol  =         0.00000000
  ---------------------------------------------------
  free energy    TOTEN  =     -1001.61173321 eV

  energy without entropy =    -1001.57138566  energy(sigma->0) =    -1001.59155943


--------------------------------------------------------------------------------------------------------




--------------------------------------- Iteration      1(  11)  ---------------------------------------


    POTLOK:  cpu time    0.0897: real time    0.0906
    SETDIJ:  cpu time    0.0109: real time    0.0109
    EDDIAG:  cpu time    3.4459: real time    3.4752
  RMM-DIIS:  cpu time   10.7758: real time   10.9017
    ORTHCH:  cpu time    0.8423: real time    0.8459
       DOS:  cpu time    0.0008: real time    0.0008
    CHARGE:  cpu time    0.9298: real time    0.9355
    MIXING:  cpu time    0.0033: real time    0.0033
    --------------------------------------------
      LOOP:  cpu time   16.0986: real time   16.2640

 eigenvalue-minimisations  :  5401
 total energy-change (2. order) : 0.1031604E+02  (-0.5638390E+01)
 number of electron     796.0000113 magnetization 
 augmentation part      237.0092417 magnetization 

 DIPCOR: dipole corrections for dipol
 direction  3 min pos   153,
 dipolmoment           0.000000      0.000000     -1.716926 electrons x Angstroem
 Tr[quadrupol]    -33573.360195

 energy correction for charged system         0.000000 eV
 dipol+quadrupol energy correction           -0.070383 eV
 added-field ion interaction        -58.757715 eV  (added to PSCEN)


 Broyden mixing:
  rms(total) = 0.17792E+01    rms(broyden)= 0.17791E+01
  rms(prec ) = 0.29329E+01
  weight for this iteration     100.00

 eigenvalues of (default mixing * dielectric matrix)
  average eigenvalue GAMMA=   0.6471
  1.5240  0.7241  0.2200  0.1203

 Free energy of the ion-electron system (eV)
  ---------------------------------------------------
  alpha Z        PSCENC =      1055.49824620
  Ewald energy   TEWEN  =    172591.00742966
  -Hartree energ DENC   =   -217279.09906852
  -exchange      EXHF   =         0.00000000
  -V(xc)+E(xc)   XCENC  =     -2259.47122474
  PAW double counting   =     58460.02324984   -54570.81469172
  entropy T*S    EENTRO =        -0.04096783
  eigenvalues    EBANDS =     -2543.56439219
  atomic energy  EATOM  =     43555.16572946
  Solvation  Ediel_sol  =         0.00000000
  ---------------------------------------------------
  free energy    TOTEN  =      -991.29568984 eV

  energy without entropy =     -991.25472201  energy(sigma->0) =     -991.27520593


--------------------------------------------------------------------------------------------------------




--------------------------------------- Iteration      1(  12)  ---------------------------------------


    POTLOK:  cpu time    0.0901: real time    0.0909
    SETDIJ:  cpu time    0.0110: real time    0.0110
    EDDIAG:  cpu time    3.4484: real time    3.4696
  RMM-DIIS:  cpu time   12.9464: real time   13.0540
    ORTHCH:  cpu time    0.8352: real time    0.8395
       DOS:  cpu time    0.0008: real time    0.0008
    CHARGE:  cpu time    0.9282: real time    0.9361
    MIXING:  cpu time    0.0035: real time    0.0035
    --------------------------------------------
      LOOP:  cpu time   18.2637: real time   18.4055

 eigenvalue-minimisations  :  6304
 total energy-change (2. order) : 0.1961260E+00  (-0.2955748E+01)
 number of electron     796.0000114 magnetization 
 augmentation part      237.2975877 magnetization 

 DIPCOR: dipole corrections for dipol
 direction  3 min pos   154,
 dipolmoment           0.000000      0.000000     -1.210702 electrons x Angstroem
 Tr[quadrupol]    -33576.805480

 energy correction for charged system         0.000000 eV
 dipol+quadrupol energy correction           -0.034998 eV
 added-field ion interaction        -45.837360 eV  (added to PSCEN)


 Broyden mixing:
  rms(total) = 0.16252E+01    rms(broyden)= 0.16252E+01
  rms(prec ) = 0.23808E+01
  weight for this iteration     100.00

 eigenvalues of (default mixing * dielectric matrix)
  average eigenvalue GAMMA=   0.6067
  1.5521  0.9304  0.2156  0.2156  0.1196

 Free energy of the ion-electron system (eV)
  ---------------------------------------------------
  alpha Z        PSCENC =      1068.45398646
  Ewald energy   TEWEN  =    172591.00742966
  -Hartree energ DENC   =   -217327.67033823
  -exchange      EXHF   =         0.00000000
  -V(xc)+E(xc)   XCENC  =     -2258.59620359
  PAW double counting   =     59299.59689321   -55418.60724941
  entropy T*S    EENTRO =        -0.03889319
  eigenvalues    EBANDS =     -2500.41091824
  atomic energy  EATOM  =     43555.16572946
  Solvation  Ediel_sol  =         0.00000000
  ---------------------------------------------------
  free energy    TOTEN  =      -991.09956388 eV

  energy without entropy =     -991.06067069  energy(sigma->0) =     -991.08011729


--------------------------------------------------------------------------------------------------------




--------------------------------------- Iteration      1(  13)  ---------------------------------------


    POTLOK:  cpu time    0.0903: real time    0.0911
    SETDIJ:  cpu time    0.0110: real time    0.0110
    EDDIAG:  cpu time    3.4650: real time    3.4802
  RMM-DIIS:  cpu time   10.8152: real time   10.9023
    ORTHCH:  cpu time    0.8351: real time    0.8385
       DOS:  cpu time    0.0008: real time    0.0008
    CHARGE:  cpu time    0.9263: real time    0.9323
    MIXING:  cpu time    0.0036: real time    0.0036
    --------------------------------------------
      LOOP:  cpu time   16.1474: real time   16.2597

 eigenvalue-minimisations  :  5344
 total energy-change (2. order) : 0.4392524E+01  (-0.8406528E+00)
 number of electron     796.0000113 magnetization 
 augmentation part      237.0476773 magnetization 

 DIPCOR: dipole corrections for dipol
 direction  3 min pos   155,
 dipolmoment           0.000000      0.000000     -1.181350 electrons x Angstroem
 Tr[quadrupol]    -33578.085038

 energy correction for charged system         0.000000 eV
 dipol+quadrupol energy correction           -0.033321 eV
 added-field ion interaction        -49.023268 eV  (added to PSCEN)


 Broyden mixing:
  rms(total) = 0.64138E+00    rms(broyden)= 0.64136E+00
  rms(prec ) = 0.85341E+00
  weight for this iteration     100.00

 eigenvalues of (default mixing * dielectric matrix)
  average eigenvalue GAMMA=   0.6609
  1.6986  1.1369  0.5874  0.2485  0.1200  0.1738

 Free energy of the ion-electron system (eV)
  ---------------------------------------------------
  alpha Z        PSCENC =      1065.26975509
  Ewald energy   TEWEN  =    172591.00742966
  -Hartree energ DENC   =   -217364.80072716
  -exchange      EXHF   =         0.00000000
  -V(xc)+E(xc)   XCENC  =     -2257.85693132
  PAW double counting   =     59912.82643040   -56037.64442579
  entropy T*S    EENTRO =        -0.03739570
  eigenvalues    EBANDS =     -2450.63690469
  atomic energy  EATOM  =     43555.16572946
  Solvation  Ediel_sol  =         0.00000000
  ---------------------------------------------------
  free energy    TOTEN  =      -986.70704005 eV

  energy without entropy =     -986.66964435  energy(sigma->0) =     -986.68834220


--------------------------------------------------------------------------------------------------------




--------------------------------------- Iteration      1(  14)  ---------------------------------------


    POTLOK:  cpu time    0.0908: real time    0.0910
    SETDIJ:  cpu time    0.0110: real time    0.0110
    EDDIAG:  cpu time    3.4537: real time    3.4844
  RMM-DIIS:  cpu time   10.8132: real time   10.9009
    ORTHCH:  cpu time    0.8397: real time    0.8434
       DOS:  cpu time    0.0008: real time    0.0008
    CHARGE:  cpu time    0.9337: real time    0.9367
    MIXING:  cpu time    0.0037: real time    0.0037
    --------------------------------------------
      LOOP:  cpu time   16.1465: real time   16.2717

 eigenvalue-minimisations  :  5348
 total energy-change (2. order) : 0.2378372E-01  (-0.4501311E+00)
 number of electron     796.0000113 magnetization 
 augmentation part      236.8943776 magnetization 

 DIPCOR: dipole corrections for dipol
 direction  3 min pos   155,
 dipolmoment           0.000000      0.000000     -1.254059 electrons x Angstroem
 Tr[quadrupol]    -33579.952519

 energy correction for charged system         0.000000 eV
 dipol+quadrupol energy correction           -0.037549 eV
 added-field ion interaction        -52.040529 eV  (added to PSCEN)


 Broyden mixing:
  rms(total) = 0.65065E+00    rms(broyden)= 0.65064E+00
  rms(prec ) = 0.82421E+00
  weight for this iteration     100.00

 eigenvalues of (default mixing * dielectric matrix)
  average eigenvalue GAMMA=   0.6950
  2.0117  1.3024  0.7533  0.2534  0.2534  0.1195  0.1714

 Free energy of the ion-electron system (eV)
  ---------------------------------------------------
  alpha Z        PSCENC =      1062.24826618
  Ewald energy   TEWEN  =    172591.00742966
  -Hartree energ DENC   =   -217421.67746649
  -exchange      EXHF   =         0.00000000
  -V(xc)+E(xc)   XCENC  =     -2256.98867197
  PAW double counting   =     60640.66667262   -56772.28793925
  entropy T*S    EENTRO =        -0.03935265
  eigenvalues    EBANDS =     -2384.77792388
  atomic energy  EATOM  =     43555.16572946
  Solvation  Ediel_sol  =         0.00000000
  ---------------------------------------------------
  free energy    TOTEN  =      -986.68325633 eV

  energy without entropy =     -986.64390367  energy(sigma->0) =     -986.66358000


--------------------------------------------------------------------------------------------------------




--------------------------------------- Iteration      1(  15)  ---------------------------------------


    POTLOK:  cpu time    0.0903: real time    0.0918
    SETDIJ:  cpu time    0.0110: real time    0.0110
    EDDIAG:  cpu time    3.4564: real time    3.4983
  RMM-DIIS:  cpu time   10.3537: real time   10.4437
    ORTHCH:  cpu time    0.8354: real time    0.8358
       DOS:  cpu time    0.0008: real time    0.0008
    CHARGE:  cpu time    0.9262: real time    0.9308
    MIXING:  cpu time    0.0039: real time    0.0039
    --------------------------------------------
      LOOP:  cpu time   15.6777: real time   15.8161

 eigenvalue-minimisations  :  5134
 total energy-change (2. order) : 0.6105033E+00  (-0.1790597E+00)
 number of electron     796.0000111 magnetization 
 augmentation part      236.7946068 magnetization 

 DIPCOR: dipole corrections for dipol
 direction  3 min pos   155,
 dipolmoment           0.000000      0.000000     -1.231676 electrons x Angstroem
 Tr[quadrupol]    -33581.785203

 energy correction for charged system         0.000000 eV
 dipol+quadrupol energy correction           -0.036221 eV
 added-field ion interaction        -51.111703 eV  (added to PSCEN)


 Broyden mixing:
  rms(total) = 0.33964E+00    rms(broyden)= 0.33964E+00
  rms(prec ) = 0.47718E+00
  weight for this iteration     100.00

 eigenvalues of (default mixing * dielectric matrix)
  average eigenvalue GAMMA=   0.6756
  2.0347  1.3324  0.8408  0.4046  0.1197  0.1679  0.2762  0.2284

 Free energy of the ion-electron system (eV)
  ---------------------------------------------------
  alpha Z        PSCENC =      1063.17842086
  Ewald energy   TEWEN  =    172591.00742966
  -Hartree energ DENC   =   -217471.85961904
  -exchange      EXHF   =         0.00000000
  -V(xc)+E(xc)   XCENC  =     -2255.98938245
  PAW double counting   =     61315.15884823   -57453.07200302
  entropy T*S    EENTRO =        -0.03717575
  eigenvalues    EBANDS =     -2329.62500099
  atomic energy  EATOM  =     43555.16572946
  Solvation  Ediel_sol  =         0.00000000
  ---------------------------------------------------
  free energy    TOTEN  =      -986.07275305 eV

  energy without entropy =     -986.03557730  energy(sigma->0) =     -986.05416517


--------------------------------------------------------------------------------------------------------




--------------------------------------- Iteration      1(  16)  ---------------------------------------


    POTLOK:  cpu time    0.0913: real time    0.0915
    SETDIJ:  cpu time    0.0110: real time    0.0110
    EDDIAG:  cpu time    3.5684: real time    3.5872
  RMM-DIIS:  cpu time   11.2846: real time   11.3876
    ORTHCH:  cpu time    0.8334: real time    0.8371
       DOS:  cpu time    0.0008: real time    0.0008
    CHARGE:  cpu time    0.9270: real time    0.9334
    MIXING:  cpu time    0.0041: real time    0.0041
    --------------------------------------------
      LOOP:  cpu time   16.7205: real time   16.8526

 eigenvalue-minimisations  :  5552
 total energy-change (2. order) : 0.6688345E-01  (-0.6512338E-01)
 number of electron     796.0000111 magnetization 
 augmentation part      236.7993935 magnetization 

 DIPCOR: dipole corrections for dipol
 direction  3 min pos   155,
 dipolmoment           0.000000      0.000000     -1.271376 electrons x Angstroem
 Tr[quadrupol]    -33582.525421

 energy correction for charged system         0.000000 eV
 dipol+quadrupol energy correction           -0.038593 eV
[...]

 eigenvalue-minimisations  :  4592
 total energy-change (2. order) : 0.6653616E-04  (-0.1148953E-04)
 number of electron     796.0000104 magnetization 
 augmentation part      236.8672771 magnetization 

 DIPCOR: dipole corrections for dipol
 direction  3 min pos   152,
 dipolmoment           0.000000      0.000000     -1.275369 electrons x Angstroem
 Tr[quadrupol]    -33585.787194

 energy correction for charged system         0.000000 eV
 dipol+quadrupol energy correction           -0.038836 eV
 added-field ion interaction        -38.975826 eV  (added to PSCEN)


 eigenvalues of (default mixing * dielectric matrix)
  average eigenvalue GAMMA=   0.6065
  1.5871  0.5472  0.0972  0.1946

  free energy =  -0.985871079317E+03  energy without entropy=  -0.985832794517E+03


--------------------------------------------------------------------------------------------------------




--------------------------------------- Iteration     49(   6)  ---------------------------------------


    POTLOK:  cpu time    0.0927: real time    0.0930
    SETDIJ:  cpu time    0.0109: real time    0.0109
    EDDIAG:  cpu time    3.6031: real time    3.6068
  RMM-DIIS:  cpu time    9.5444: real time    9.5519
    ORTHCH:  cpu time    0.8412: real time    0.8417
       DOS:  cpu time    0.0008: real time    0.0010
    CHARGE:  cpu time    0.9266: real time    0.9270
    MIXING:  cpu time    0.0034: real time    0.0034
    --------------------------------------------
      LOOP:  cpu time   15.0231: real time   15.0357

 eigenvalue-minimisations  :  4703
 total energy-change (2. order) : 0.3364330E-06  (-0.1055530E-04)
 number of electron     796.0000104 magnetization 
 augmentation part      236.8672281 magnetization 

 DIPCOR: dipole corrections for dipol
 direction  3 min pos   152,
 dipolmoment           0.000000      0.000000     -1.275084 electrons x Angstroem
 Tr[quadrupol]    -33585.788037

 energy correction for charged system         0.000000 eV
 dipol+quadrupol energy correction           -0.038819 eV
 added-field ion interaction        -38.967106 eV  (added to PSCEN)


 eigenvalues of (default mixing * dielectric matrix)
  average eigenvalue GAMMA=   0.7280
  2.2219  0.8825  0.0972  0.2634  0.1750

  free energy =  -0.985871078981E+03  energy without entropy=  -0.985832774549E+03


--------------------------------------------------------------------------------------------------------




--------------------------------------- Iteration     49(   7)  ---------------------------------------


    POTLOK:  cpu time    0.0925: real time    0.0933
    SETDIJ:  cpu time    0.0109: real time    0.0109
    EDDIAG:  cpu time    3.4782: real time    3.4802
  RMM-DIIS:  cpu time    7.3137: real time    7.3177
    ORTHCH:  cpu time    0.8404: real time    0.8407
       DOS:  cpu time    0.0007: real time    0.0007
    --------------------------------------------
      LOOP:  cpu time   11.7364: real time   11.7435

 eigenvalue-minimisations  :  3596
 total energy-change (2. order) : 0.3836336E-05  (-0.4602600E-05)
 number of electron     796.0000104 magnetization 
 augmentation part      236.8672281 magnetization 

 DIPCOR: dipole corrections for dipol
 direction  3 min pos   152,
 dipolmoment           0.000000      0.000000     -1.274721 electrons x Angstroem
 Tr[quadrupol]    -33585.787964

 energy correction for charged system         0.000000 eV
 dipol+quadrupol energy correction           -0.038797 eV
 added-field ion interaction        -38.956019 eV  (added to PSCEN)


  free energy =  -0.985871075145E+03  energy without entropy=  -0.985832793986E+03


--------------------------------------------------------------------------------------------------------




------------------------ aborting loop because EDIFF is reached ----------------------------------------


    CHARGE:  cpu time    0.9311: real time    0.9315
    FORLOC:  cpu time    0.0575: real time    0.0575
    FORNL :  cpu time    3.5918: real time    3.5951
    STRESS:  cpu time   10.6475: real time   10.6530
    FORCOR:  cpu time    0.1198: real time    0.1198
    FORHAR:  cpu time    0.0727: real time    0.0727
    MIXING:  cpu time    0.0037: real time    0.0037
    OFIELD:  cpu time    0.0001: real time    0.0000

  Number of pair interactions contributing to vdW energy:  561002
  Edisp (eV):   -9.32240
    FORVDW:  cpu time    0.0752: real time    0.0752

  FORCE on cell =-STRESS in cart. coord.  units (eV):
  Direction    XX          YY          ZZ          XY          YZ          ZX
  --------------------------------------------------------------------------------------
  Alpha Z  1114.32634  1114.32634  1114.32634
  Ewald  201549.39868200852.63364************  -722.43467   400.66438    31.64850
  Hartree210696.70870210079.61889************  -626.27732   302.28382    56.37186
  E(xc)   -3651.14631 -3650.31285 -3656.71523    -0.63069     0.17821    -0.26240
  Local  ************************421236.53297  1328.76132  -686.71336  -100.33137
  n-local   656.63525   652.48360   469.16286    -0.63968     3.28768    -1.61862
  augment  3839.01439  3835.34975  3853.15991     2.55194    -1.25405     0.98861
  Kinetic  9857.33311  9832.27812  9994.18334    20.26659   -18.30223    12.95915
  Fock        0.00000     0.00000     0.00000     0.00000     0.00000     0.00000
  vdW       -10.14967   -10.17492    -8.60232    -0.00188    -0.08174    -0.05671
  -------------------------------------------------------------------------------------
  Total    -100.11721   -99.28208  -116.87976     1.59561     0.06272    -0.30098
  in kB     -41.93804   -41.58822   -48.95970     0.66838     0.02627    -0.12608
  external pressure =      -44.16 kB  Pullay stress =        0.00 kB



--------------------------------------------------------------------------------------------------------



  FREE ENERGIE OF THE ION-ELECTRON SYSTEM (eV)
  ---------------------------------------------------
  free  energy   TOTEN  =      -995.19347423 eV

  energy  without entropy=     -995.15519307  energy(sigma->0) =     -995.17433365
 
 d Force = 0.8206310E-04[ 0.100E-04, 0.154E-03]  d Energy = 0.6477784E-04 0.173E-04
 d Force =-0.3736404E+01[-0.374E+01,-0.374E+01]  d Ewald  =-0.3736404E+01-0.380E-07


--------------------------------------------------------------------------------------------------------


    POTLOK:  cpu time    0.1055: real time    0.1055


--------------------------------------------------------------------------------------------------------




--------------------------------------------------------------------------------------------------------


    WAVPRE:  cpu time    0.0554: real time    0.0568
    FEWALD:  cpu time    0.0031: real time    0.0031
    ORTHCH:  cpu time    2.0083: real time    2.0093
     LOOP+:  cpu time  127.6634: real time  127.7541


--------------------------------------- Iteration     50(   1)  ---------------------------------------


    POTLOK:  cpu time    0.0931: real time    0.0940
    SETDIJ:  cpu time    0.0110: real time    0.0110
     EDDAV:  cpu time   19.0707: real time   19.0811
       DOS:  cpu time    0.0015: real time    0.0015
    CHARGE:  cpu time    0.9321: real time    0.9328
    MIXING:  cpu time    0.0025: real time    0.0025
    --------------------------------------------
      LOOP:  cpu time   20.1109: real time   20.1229

 eigenvalue-minimisations  :  4896
 total energy-change (2. order) :-0.2520689E-04  (-0.2398286E-02)
 number of electron     796.0000103 magnetization 
 augmentation part      236.8671446 magnetization 

 DIPCOR: dipole corrections for dipol
 direction  3 min pos   152,
 dipolmoment           0.000000      0.000000     -1.274703 electrons x Angstroem
 Tr[quadrupol]    -33585.772230

 energy correction for charged system         0.000000 eV
 dipol+quadrupol energy correction           -0.038796 eV
 added-field ion interaction        -38.956012 eV  (added to PSCEN)


  free energy =  -0.985871104188E+03  energy without entropy=  -0.985832819109E+03


--------------------------------------------------------------------------------------------------------




--------------------------------------- Iteration     50(   2)  ---------------------------------------


    POTLOK:  cpu time    0.0923: real time    0.0929
    SETDIJ:  cpu time    0.0110: real time    0.0110
    EDDIAG:  cpu time    3.4830: real time    3.4847
  RMM-DIIS:  cpu time   10.2245: real time   10.2323
    ORTHCH:  cpu time    0.8421: real time    0.8441
       DOS:  cpu time    0.0008: real time    0.0008
    CHARGE:  cpu time    0.9314: real time    0.9324
    MIXING:  cpu time    0.0027: real time    0.0027
    --------------------------------------------
      LOOP:  cpu time   15.5876: real time   15.6010

 eigenvalue-minimisations  :  4991
 total energy-change (2. order) :-0.6978468E-04  (-0.6506818E-04)
 number of electron     796.0000103 magnetization 
 augmentation part      236.8673595 magnetization 

 DIPCOR: dipole corrections for dipol
 direction  3 min pos   152,
 dipolmoment           0.000000      0.000000     -1.275560 electrons x Angstroem
 Tr[quadrupol]    -33585.767317

 energy correction for charged system         0.000000 eV
 dipol+quadrupol energy correction           -0.038848 eV
 added-field ion interaction        -38.982221 eV  (added to PSCEN)


 eigenvalues of (default mixing * dielectric matrix)
  average eigenvalue GAMMA=   0.5658
  0.5658

  free energy =  -0.985871173973E+03  energy without entropy=  -0.985832857194E+03


--------------------------------------------------------------------------------------------------------




--------------------------------------- Iteration     50(   3)  ---------------------------------------


    POTLOK:  cpu time    0.0922: real time    0.0930
    SETDIJ:  cpu time    0.0109: real time    0.0109
    EDDIAG:  cpu time    3.4854: real time    3.4873
  RMM-DIIS:  cpu time    9.9109: real time    9.9198
    ORTHCH:  cpu time    0.8394: real time    0.8397
       DOS:  cpu time    0.0008: real time    0.0008
    CHARGE:  cpu time    0.9276: real time    0.9279
    MIXING:  cpu time    0.0028: real time    0.0028
    --------------------------------------------
      LOOP:  cpu time   15.2700: real time   15.2821

 eigenvalue-minimisations  :  4856
 total energy-change (2. order) :-0.3954380E-04  (-0.1400121E-04)
 number of electron     796.0000104 magnetization 
 augmentation part      236.8671292 magnetization 

 DIPCOR: dipole corrections for dipol
 direction  3 min pos   152,
 dipolmoment           0.000000      0.000000     -1.272207 electrons x Angstroem
 Tr[quadrupol]    -33585.776941

 energy correction for charged system         0.000000 eV
 dipol+quadrupol energy correction           -0.038644 eV
 added-field ion interaction        -38.879749 eV  (added to PSCEN)


 eigenvalues of (default mixing * dielectric matrix)
  average eigenvalue GAMMA=   0.5547
  0.9901  0.1194

  free energy =  -0.985871213516E+03  energy without entropy=  -0.985833000096E+03


--------------------------------------------------------------------------------------------------------




--------------------------------------- Iteration     50(   4)  ---------------------------------------


    POTLOK:  cpu time    0.0923: real time    0.0936
    SETDIJ:  cpu time    0.0109: real time    0.0109
    EDDIAG:  cpu time    3.5224: real time    3.5241
  RMM-DIIS:  cpu time    8.7601: real time    8.7644
    ORTHCH:  cpu time    0.8452: real time    0.8467
       DOS:  cpu time    0.0008: real time    0.0008
    CHARGE:  cpu time    0.9250: real time    0.9254
    MIXING:  cpu time    0.0031: real time    0.0031
    --------------------------------------------
      LOOP:  cpu time   14.1597: real time   14.1688

 eigenvalue-minimisations  :  4291
 total energy-change (2. order) : 0.3223514E-04  (-0.9487958E-05)
 number of electron     796.0000103 magnetization 
 augmentation part      236.8674113 magnetization 

 DIPCOR: dipole corrections for dipol
 direction  3 min pos   152,
 dipolmoment           0.000000      0.000000     -1.275576 electrons x Angstroem
 Tr[quadrupol]    -33585.765597

 energy correction for charged system         0.000000 eV
 dipol+quadrupol energy correction           -0.038849 eV
 added-field ion interaction        -38.982703 eV  (added to PSCEN)


 eigenvalues of (default mixing * dielectric matrix)
  average eigenvalue GAMMA=   0.5255
  1.2464  0.2319  0.0982

  free energy =  -0.985871181281E+03  energy without entropy=  -0.985832861959E+03


--------------------------------------------------------------------------------------------------------




--------------------------------------- Iteration     50(   5)  ---------------------------------------


    POTLOK:  cpu time    0.0928: real time    0.0943
    SETDIJ:  cpu time    0.0110: real time    0.0110
    EDDIAG:  cpu time    3.4895: real time    3.4914
  RMM-DIIS:  cpu time    6.3327: real time    6.3385
    ORTHCH:  cpu time    0.8462: real time    0.8463
       DOS:  cpu time    0.0008: real time    0.0008
    CHARGE:  cpu time    0.9263: real time    0.9265
    MIXING:  cpu time    0.0032: real time    0.0032
    --------------------------------------------
      LOOP:  cpu time   11.7024: real time   11.7121

 eigenvalue-minimisations  :  3076
 total energy-change (2. order) : 0.2793640E-04  (-0.2995178E-05)
 number of electron     796.0000103 magnetization 
 augmentation part      236.8673595 magnetization 

 DIPCOR: dipole corrections for dipol
 direction  3 min pos   152,
 dipolmoment           0.000000      0.000000     -1.274311 electrons x Angstroem
 Tr[quadrupol]    -33585.768684

 energy correction for charged system         0.000000 eV
 dipol+quadrupol energy correction           -0.038772 eV
 added-field ion interaction        -38.944040 eV  (added to PSCEN)


 eigenvalues of (default mixing * dielectric matrix)
  average eigenvalue GAMMA=   0.6823
  1.6565  0.7797  0.1964  0.0965

  free energy =  -0.985871153345E+03  energy without entropy=  -0.985832869890E+03


--------------------------------------------------------------------------------------------------------




--------------------------------------- Iteration     50(   6)  ---------------------------------------


    POTLOK:  cpu time    0.0930: real time    0.0931
    SETDIJ:  cpu time    0.0109: real time    0.0109
    EDDIAG:  cpu time    3.6031: real time    3.6063
  RMM-DIIS:  cpu time    5.6151: real time    5.6196
    ORTHCH:  cpu time    0.8373: real time    0.8380
       DOS:  cpu time    0.0008: real time    0.0008
    --------------------------------------------
      LOOP:  cpu time   10.1601: real time   10.1686

 eigenvalue-minimisations  :  2699
 total energy-change (2. order) :-0.4246707E-05  (-0.2326368E-05)
 number of electron     796.0000103 magnetization 
 augmentation part      236.8673595 magnetization 

 DIPCOR: dipole corrections for dipol
 direction  3 min pos   152,
 dipolmoment           0.000000      0.000000     -1.274400 electrons x Angstroem
 Tr[quadrupol]    -33585.767328

 energy correction for charged system         0.000000 eV
 dipol+quadrupol energy correction           -0.038777 eV
 added-field ion interaction        -38.946767 eV  (added to PSCEN)


  free energy =  -0.985871157592E+03  energy without entropy=  -0.985832872442E+03


--------------------------------------------------------------------------------------------------------




------------------------ aborting loop because EDIFF is reached ----------------------------------------


    CHARGE:  cpu time    0.9252: real time    0.9255
    FORLOC:  cpu time    0.0575: real time    0.0577
    FORNL :  cpu time    3.5978: real time    3.5999
    STRESS:  cpu time   10.5987: real time   10.6078
    FORCOR:  cpu time    0.1197: real time    0.1197
    FORHAR:  cpu time    0.0753: real time    0.0753
    MIXING:  cpu time    0.0035: real time    0.0035
    OFIELD:  cpu time    0.0001: real time    0.0001

  Number of pair interactions contributing to vdW energy:  561001
  Edisp (eV):   -9.32243
    FORVDW:  cpu time    0.0752: real time    0.0752

  FORCE on cell =-STRESS in cart. coord.  units (eV):
  Direction    XX          YY          ZZ          XY          YZ          ZX
  --------------------------------------------------------------------------------------
  Alpha Z  1114.32634  1114.32634  1114.32634
  Ewald  201550.90292200854.76071************  -722.32736   400.74573    32.02808
  Hartree210698.17117210081.77824************  -626.53221   302.64533    56.96685
  E(xc)   -3651.15073 -3650.31602 -3656.71845    -0.63038     0.17824    -0.26235
  Local  ************************421239.72953  1328.92554  -687.17007  -101.32375
  n-local   656.62702   652.48341   469.14782    -0.63839     3.28642    -1.61489
  augment  3839.01682  3835.34708  3853.15933     2.55083    -1.25380     0.98792
  Kinetic  9857.40526  9832.24426  9994.23847    20.26229   -18.29029    12.96519
  Fock        0.00000     0.00000     0.00000     0.00000     0.00000     0.00000
  vdW       -10.14976   -10.17500    -8.60255    -0.00200    -0.08168    -0.05680
  -------------------------------------------------------------------------------------
  Total    -100.05244   -99.26017  -116.88831     1.60831     0.05988    -0.30974
  in kB     -41.91091   -41.57903   -48.96328     0.67370     0.02508    -0.12975
  external pressure =      -44.15 kB  Pullay stress =        0.00 kB



--------------------------------------------------------------------------------------------------------



  FREE ENERGIE OF THE ION-ELECTRON SYSTEM (eV)
  ---------------------------------------------------
  free  energy   TOTEN  =      -995.19359225 eV

  energy  without entropy=     -995.15530710  energy(sigma->0) =     -995.17444968
 
 d Force = 0.1303724E-03[ 0.917E-04, 0.169E-03]  d Energy = 0.1180207E-03 0.124E-04
 d Force =-0.1737819E+01[-0.174E+01,-0.174E+01]  d Ewald  =-0.1737819E+01-0.682E-07


--------------------------------------------------------------------------------------------------------


    POTLOK:  cpu time    0.1067: real time    0.1069


--------------------------------------------------------------------------------------------------------


 Conjugate gradient step on ions:
 trial-energy change:   -0.000118  1 .order   -0.000130   -0.000169   -0.000092
  (g-gl).g = 0.109E-03      g.g   = 0.143E-03  gl.gl    = 0.172E-03
 g(Force)  = 0.143E-03   g(Stress)= 0.000E+00 ortho     = 0.659E-05
 gamma     =   0.63297
 trial     =   1.15027
 opt step  =   2.51225  (harmonic =   2.51225) maximal distance =0.00215682
 next E    =  -995.193659   (d E  =  -0.00018)


--------------------------------------------------------------------------------------------------------


  
 reached required accuracy - stopping structural energy minimisation
     LOOP+:  cpu time  102.6012: real time  102.6804
    4ORBIT:  cpu time    0.0000: real time    0.0000

 total amount of memory used by VASP MPI-rank0   179459. kBytes
=======================================================================

   base      :      30000. kBytes
   nonlr-proj:      38718. kBytes
   fftplans  :       6642. kBytes
   grid      :      34272. kBytes
   one-center:       1975. kBytes
   wavefun   :      67852. kBytes
 
  
  
 General timing and accounting informations for this job:
 ========================================================
  
                  Total CPU time used (sec):     6691.228
                            User time (sec):     6636.546
                          System time (sec):       54.682
                         Elapsed time (sec):     6713.801
  
                   Maximum memory used (kb):      521356.
                   Average memory used (kb):           0.
  
                          Minor page faults:      5760137
                          Major page faults:            0
                 Voluntary context switches:         7720
