 vasp.5.4.4.18Apr17-6-g9f103f2a35 (build Jun 30 2017 19:19:18) complex          
  
 executed on         MareNostrum4 date 2022.04.04  10:28:33
 running on   48 total cores
 distrk:  each k-point on   48 cores,    1 groups
 distr:  one band on NCORES_PER_BAND=   4 cores,   12 groups


--------------------------------------------------------------------------------------------------------


 INCAR:
 POTCAR:    PAW_PBE Ag 02Apr2005                  
 POTCAR:    PAW_PBE C 08Apr2002                   
 POTCAR:    PAW_PBE N 08Apr2002                   
 POTCAR:    PAW_PBE H 15Jun2001                   
 POTCAR:    PAW_PBE Ag 02Apr2005                  
  local pseudopotential read in
  partial core-charges read in
  partial kinetic energy density read in
  atomic valenz-charges read in
  non local Contribution for L=           2  read in
    real space projection operators read in
  non local Contribution for L=           2  read in
    real space projection operators read in
  non local Contribution for L=           0  read in
    real space projection operators read in
  non local Contribution for L=           0  read in
    real space projection operators read in
  non local Contribution for L=           1  read in
    real space projection operators read in
  non local Contribution for L=           1  read in
    real space projection operators read in
    PAW grid and wavefunctions read in
 
   number of l-projection  operators is LMAX  =           6
   number of lm-projection operators is LMMAX =          18
 
 POTCAR:    PAW_PBE C 08Apr2002                   
  local pseudopotential read in
  partial core-charges read in
  partial kinetic energy density read in
  atomic valenz-charges read in
  non local Contribution for L=           0  read in
    real space projection operators read in
  non local Contribution for L=           0  read in
    real space projection operators read in
  non local Contribution for L=           1  read in
    real space projection operators read in
  non local Contribution for L=           1  read in
    real space projection operators read in
    PAW grid and wavefunctions read in
 
   number of l-projection  operators is LMAX  =           4
   number of lm-projection operators is LMMAX =           8
 
 POTCAR:    PAW_PBE N 08Apr2002                   
  local pseudopotential read in
  partial core-charges read in
  partial kinetic energy density read in
  atomic valenz-charges read in
  non local Contribution for L=           0  read in
    real space projection operators read in
  non local Contribution for L=           0  read in
    real space projection operators read in
  non local Contribution for L=           1  read in
    real space projection operators read in
  non local Contribution for L=           1  read in
    real space projection operators read in
    PAW grid and wavefunctions read in
 
   number of l-projection  operators is LMAX  =           4
   number of lm-projection operators is LMMAX =           8
 
 POTCAR:    PAW_PBE H 15Jun2001                   
  local pseudopotential read in
  atomic valenz-charges read in
  non local Contribution for L=           0  read in
    real space projection operators read in
  non local Contribution for L=           0  read in
    real space projection operators read in
  non local Contribution for L=           1  read in
    real space projection operators read in
    PAW grid and wavefunctions read in
 
   number of l-projection  operators is LMAX  =           3
   number of lm-projection operators is LMMAX =           5
 
 Optimization of the real space projectors (new method)

 maximal supplied QI-value         = 15.12
 optimisation between [QCUT,QGAM] = [ 10.73, 21.62] = [ 32.26,130.87] Ry 
 Optimized for a Real-space Cutoff    1.42 Angstroem

   l    n(q)    QCUT    max X(q) W(low)/X(q) W(high)/X(q)  e(spline) 
   2      8    10.734    53.897    0.46E-03    0.48E-03    0.17E-06
   2      8    10.734    52.416    0.47E-03    0.50E-03    0.17E-06
   0      9    10.734   122.045    0.16E-03    0.13E-03    0.44E-07
   0      9    10.734    73.629    0.16E-03    0.13E-03    0.43E-07
   1      9    10.734    15.255    0.66E-04    0.32E-03    0.15E-06
   1      9    10.734     9.562    0.55E-04    0.26E-03    0.12E-06
 Optimization of the real space projectors (new method)

 maximal supplied QI-value         = 25.13
 optimisation between [QCUT,QGAM] = [ 10.81, 21.61] = [ 32.71,130.83] Ry 
 Optimized for a Real-space Cutoff    1.23 Angstroem

   l    n(q)    QCUT    max X(q) W(low)/X(q) W(high)/X(q)  e(spline) 
   0      8    10.807   115.676    0.36E-03    0.72E-03    0.24E-06
   0      8    10.807    87.132    0.35E-03    0.71E-03    0.24E-06
   1      7    10.807     4.429    0.19E-03    0.39E-03    0.11E-06
   1      7    10.807     2.733    0.14E-03    0.28E-03    0.13E-06
 Optimization of the real space projectors (new method)

 maximal supplied QI-value         = 25.13
 optimisation between [QCUT,QGAM] = [ 10.81, 21.61] = [ 32.71,130.83] Ry 
 Optimized for a Real-space Cutoff    1.23 Angstroem

   l    n(q)    QCUT    max X(q) W(low)/X(q) W(high)/X(q)  e(spline) 
   0      8    10.807    79.467    0.34E-03    0.68E-03    0.21E-06
   0      8    10.807    66.151    0.34E-03    0.67E-03    0.21E-06
   1      7    10.807    14.030    0.45E-03    0.13E-02    0.11E-05
   1      7    10.807     9.831    0.48E-03    0.13E-02    0.11E-05
 Optimization of the real space projectors (new method)

 maximal supplied QI-value         = 34.20
 optimisation between [QCUT,QGAM] = [ 10.60, 21.55] = [ 31.48,130.03] Ry 
 Optimized for a Real-space Cutoff    1.23 Angstroem

   l    n(q)    QCUT    max X(q) W(low)/X(q) W(high)/X(q)  e(spline) 
   0      8    10.603    19.460    0.37E-03    0.59E-03    0.23E-06
   0      8    10.603    12.209    0.35E-03    0.56E-03    0.22E-06
   1      7    10.603     4.655    0.70E-04    0.28E-03    0.29E-06
  PAW_PBE Ag 02Apr2005                  :
 energy of atom  1       EATOM=-1037.2675
 kinetic energy error for atom=    0.0055 (will be added to EATOM!!)
  PAW_PBE C 08Apr2002                   :
 energy of atom  2       EATOM= -147.1560
 kinetic energy error for atom=    0.0116 (will be added to EATOM!!)
  PAW_PBE N 08Apr2002                   :
 energy of atom  3       EATOM= -264.5486
 kinetic energy error for atom=    0.0253 (will be added to EATOM!!)
  PAW_PBE H 15Jun2001                   :
 energy of atom  4       EATOM=  -12.4884
 kinetic energy error for atom=    0.0045 (will be added to EATOM!!)
 
 
 POSCAR: Ag  C  N  H                             
  positions in direct lattice
  velocities in cartesian coordinates
 exchange correlation table for  LEXCH =        8
   RHO(1)=    0.500       N(1)  =     2000
   RHO(2)=  100.500       N(2)  =     4000
 


--------------------------------------------------------------------------------------------------------


 ion  position               nearest neighbor table
   1  0.000  0.000  0.000-  28 2.89   4 2.89   3 2.89  35 2.89  10 2.89   2 2.89  70 2.89  40 2.89
                            47 2.89
   2  1.000  0.167  0.000-  27 2.89   8 2.89   5 2.89  28 2.89   3 2.89   1 2.89  39 2.89  61 2.89
                            40 2.89
   3  0.167  0.167  0.000-  14 2.89  17 2.89   8 2.89   2 2.89   1 2.89   4 2.89  38 2.89  40 2.89
                            37 2.89
   4  0.167  0.000  0.000-  13 2.89  14 2.89   1 2.89  11 2.89  10 2.89   3 2.89  37 2.89  47 2.89
                            46 2.89
   5  0.000  0.333  0.000-   8 2.89  27 2.89   2 2.89  32 2.89   6 2.89   7 2.89  62 2.89  44 2.89
                            39 2.89
   6  0.000  0.500  0.000-  12 2.89   7 2.89   9 2.89  31 2.89   5 2.89  32 2.89  43 2.89  65 2.89
                            44 2.89
   7  0.167  0.500  0.000-   6 2.89  18 2.89  21 2.89  12 2.89   5 2.89   8 2.89  42 2.89  44 2.89
                            41 2.89
   8  0.167  0.333  0.000-   5 2.89   2 2.89   3 2.89  17 2.89  18 2.89   7 2.89  39 2.89  41 2.89
                            38 2.89
   9  0.000  0.667  0.000-  12 2.89  36 2.89  31 2.89  11 2.89   6 2.89  10 2.89  66 2.89  48 2.89
                            43 2.89
  10  1.000  0.833  0.000-  36 2.89  35 2.89   9 2.89  11 2.89   1 2.89   4 2.89  69 2.89  47 2.89
                            48 2.89
  11  0.167  0.833  0.000-  22 2.89   9 2.89  12 2.89  10 2.89   4 2.89  13 2.89  46 2.89  48 2.89
                            45 2.89
  12  0.167  0.667  0.000-   6 2.89   9 2.89  22 2.89  11 2.89   7 2.89  21 2.89  43 2.89  45 2.89
                            42 2.89
  13  0.333  0.000  0.000-   4 2.89  16 2.89  15 2.89  22 2.89  11 2.89  14 2.89  46 2.89  52 2.89
                            59 2.89
  14  0.333  0.167  0.000-   3 2.89  17 2.89   4 2.89  20 2.89  15 2.89  13 2.89  51 2.89  37 2.89
                            52 2.89
  15  0.500  0.167  0.000-  26 2.89  20 2.89  29 2.89  14 2.89  13 2.89  16 2.89  50 2.89  52 2.89
                            49 2.89
  16  0.500  0.000  0.000-  25 2.89  26 2.89  13 2.89  23 2.89  22 2.89  15 2.89  49 2.89  59 2.89
                            58 2.89
  17  0.333  0.333  0.000-  14 2.89   3 2.89   8 2.89  20 2.89  19 2.89  18 2.89  38 2.89  56 2.89
                            51 2.89
  18  0.333  0.500  0.000-   7 2.89  21 2.89  24 2.89  19 2.89   8 2.89  17 2.89  55 2.89  41 2.89
                            56 2.89
  19  0.500  0.500  0.000-  30 2.89  24 2.89  33 2.89  18 2.89  17 2.89  20 2.89  54 2.89  56 2.89
                            53 2.89
  20  0.500  0.333  0.000-  29 2.89  15 2.89  30 2.89  14 2.89  17 2.89  19 2.89  53 2.89  51 2.89
                            50 2.89
  21  0.333  0.667  0.000-  18 2.89  23 2.89   7 2.89  22 2.89  12 2.89  24 2.89  42 2.89  60 2.89
                            55 2.89
  22  0.333  0.833  0.000-  11 2.89  12 2.89  21 2.89  23 2.89  13 2.89  16 2.89  45 2.89  59 2.89
                            60 2.89
  23  0.500  0.833  0.000-  34 2.89  21 2.89  24 2.89  22 2.89  25 2.89  16 2.89  58 2.89  60 2.89
                            57 2.89
  24  0.500  0.667  0.000-  34 2.89  33 2.89  19 2.89  23 2.89  18 2.89  21 2.89  57 2.89  55 2.89
                            54 2.89
  25  0.667  0.000  0.000-  16 2.89  28 2.89  23 2.89  27 2.89  34 2.89  26 2.89  58 2.89  64 2.89
                            71 2.89
  26  0.667  0.167  0.000-  15 2.89  32 2.89  29 2.89  16 2.89  27 2.89  25 2.89  63 2.89  49 2.89
                            64 2.89
  27  0.833  0.167  0.000-   2 2.89   5 2.89  32 2.89  26 2.89  25 2.89  28 2.89  62 2.89  64 2.89
                            61 2.89
  28  0.833  0.000  0.000-   1 2.89   2 2.89  25 2.89  35 2.89  34 2.89  27 2.89  61 2.89  71 2.89
                            70 2.89
  29  0.667  0.333  0.000-  20 2.89  32 2.89  15 2.89  26 2.89  31 2.89  30 2.89  50 2.89  68 2.89
                            63 2.89
  30  0.667  0.500  0.000-  19 2.89  33 2.89  20 2.89  36 2.89  31 2.89  29 2.89  67 2.89  53 2.89
                            68 2.89
  31  0.833  0.500  0.000-   9 2.89  36 2.89  30 2.89   6 2.89  32 2.89  29 2.89  66 2.89  68 2.89
                            65 2.89
  32  0.833  0.333  0.000-  29 2.89  26 2.89  27 2.89   5 2.89  31 2.89   6 2.89  63 2.89  65 2.89
                            62 2.89
  33  0.667  0.667  0.000-  24 2.89  19 2.89  30 2.89  35 2.89  34 2.89  36 2.89  54 2.89  72 2.89
                            67 2.89
  34  0.667  0.833  0.000-  24 2.89  23 2.89  33 2.89  35 2.89  25 2.89  28 2.89  57 2.89  71 2.89
                            72 2.89
  35  0.833  0.833  0.000-  10 2.89  33 2.89  36 2.89  34 2.89   1 2.89  28 2.89  70 2.89  72 2.89
                            69 2.89
  36  0.833  0.667  0.000-  10 2.89   9 2.89  31 2.89  35 2.89  30 2.89  33 2.89  69 2.89  67 2.89
                            66 2.89
  37  0.222  0.111  0.107-  52 2.89  51 2.89  38 2.89  40 2.89  46 2.89  47 2.89  14 2.89   4 2.89
                             3 2.89  76 2.90  74 2.91  75 2.92
  38  0.222  0.278  0.107-  79 2.89  51 2.89  37 2.89  56 2.89  40 2.89  39 2.89  41 2.89   3 2.89
                            17 2.89   8 2.89  76 2.90  73 2.92
  39  0.056  0.278  0.107-  62 2.89  61 2.89  40 2.89  38 2.89  44 2.89  41 2.89   2 2.89   8 2.89
                             5 2.89  73 2.91  78 2.91 100 2.91
  40  0.056  0.111  0.107-  61 2.89  39 2.89  70 2.89  38 2.89  37 2.89  47 2.89   1 2.89   3 2.89
                             2 2.89  99 2.91  74 2.91  73 2.91
  41  0.222  0.444  0.107-  56 2.89  55 2.89  42 2.89  44 2.89  39 2.89  38 2.89  18 2.89   8 2.89
                             7 2.89  79 2.89  80 2.90  78 2.91
  42  0.222  0.611  0.107-  80 2.89  55 2.89  41 2.89  60 2.89  44 2.89  43 2.89  45 2.89   7 2.89
                            21 2.89  12 2.89  83 2.91  77 2.91
  43  0.056  0.611  0.107-  66 2.89  65 2.89  44 2.89  42 2.89  48 2.89  45 2.89   6 2.89  12 2.89
                             9 2.89 104 2.91  77 2.91  82 2.91
  44  0.056  0.444  0.107-  65 2.89  43 2.89  62 2.89  42 2.89  41 2.89  39 2.89   5 2.89   7 2.89
                             6 2.89  78 2.91 103 2.91  77 2.91
  45  0.222  0.778  0.107-  60 2.89  59 2.89  46 2.89  48 2.89  42 2.89  43 2.89  22 2.89  12 2.89
                            11 2.89  83 2.90  82 2.91  84 2.91
  46  0.222  0.944  0.107-  59 2.89  45 2.89  52 2.89  48 2.89  47 2.89  37 2.89  13 2.89  11 2.89
                             4 2.89  81 2.91  75 2.91  84 2.91
  47  0.056  0.944  0.107-  70 2.89  69 2.89  48 2.89  46 2.89  40 2.89  37 2.89  10 2.89   4 2.89
                             1 2.89 108 2.91  81 2.91  74 2.91
  48  0.056  0.778  0.107-  69 2.89  47 2.89  66 2.89  46 2.89  45 2.89  43 2.89  11 2.89   9 2.89
                            10 2.89 107 2.90  81 2.91  82 2.91
  49  0.556  0.111  0.107-  64 2.89  63 2.89  50 2.89  52 2.89  58 2.89  59 2.89  26 2.89  16 2.89
                            15 2.89  88 2.90  87 2.91  86 2.91
  50  0.556  0.278  0.107-  91 2.87  63 2.89  49 2.89  68 2.89  52 2.89  51 2.89  53 2.89  15 2.89
                            29 2.89  20 2.89  85 2.90  88 2.91
  51  0.389  0.278  0.107-  90 2.88  38 2.89  37 2.89  52 2.89  50 2.89  53 2.89  56 2.89  14 2.89
                            20 2.89  17 2.89  85 2.90  76 2.91
  52  0.389  0.111  0.107-  85 2.88  37 2.89  51 2.89  46 2.89  50 2.89  49 2.89  59 2.89  13 2.89
                            15 2.89  14 2.89  86 2.91  75 2.92
  53  0.556  0.444  0.107-  91 2.89  92 2.89  68 2.89  67 2.89  54 2.89  56 2.89  51 2.89  50 2.89
                            30 2.89  20 2.89  19 2.89  90 2.90
  54  0.556  0.611  0.107-  92 2.88  67 2.89  53 2.89  72 2.89  56 2.89  55 2.89  57 2.89  19 2.89
                            33 2.89  24 2.89  89 2.89  95 2.91
  55  0.389  0.611  0.107-  89 2.89  42 2.89  41 2.89  56 2.89  54 2.89  60 2.89  57 2.89  18 2.89
                            24 2.89  21 2.89  80 2.90  94 2.91
  56  0.389  0.444  0.107-  90 2.89  41 2.89  55 2.89  38 2.89  54 2.89  53 2.89  51 2.89  17 2.89
                            19 2.89  18 2.89  89 2.90  79 2.90
  57  0.556  0.778  0.107-  72 2.89  71 2.89  58 2.89  60 2.89  54 2.89  55 2.89  34 2.89  24 2.89
                            23 2.89  95 2.90  94 2.91  96 2.91
  58  0.556  0.944  0.107-  71 2.89  57 2.89  64 2.89  60 2.89  59 2.89  49 2.89  25 2.89  23 2.89
                            16 2.89  96 2.91  87 2.91  93 2.91
  59  0.389  0.944  0.107-  46 2.89  45 2.89  60 2.89  58 2.89  52 2.89  49 2.89  22 2.89  16 2.89
                            13 2.89  86 2.91  84 2.91  93 2.91
  60  0.389  0.778  0.107-  45 2.89  59 2.89  42 2.89  58 2.89  57 2.89  55 2.89  23 2.89  21 2.89
                            22 2.89  94 2.91  83 2.91  93 2.91
  61  0.889  0.111  0.107-  40 2.89  39 2.89  62 2.89  64 2.89  70 2.89  71 2.89   2 2.89  28 2.89
                            27 2.89  98 2.91  99 2.91 100 2.92
  62  0.889  0.278  0.107-  39 2.89  61 2.89  44 2.89  64 2.89  63 2.89  65 2.89  27 2.89   5 2.89
                            32 2.89 100 2.91 103 2.91  97 2.92
  63  0.722  0.278  0.107-  50 2.89  49 2.89  64 2.89  62 2.89  65 2.89  68 2.89  26 2.89  32 2.89
                            29 2.89 102 2.90  88 2.91  97 2.91
  64  0.722  0.111  0.107-  49 2.89  63 2.89  58 2.89  62 2.89  61 2.89  71 2.89  25 2.89  27 2.89
                            26 2.89  87 2.91  97 2.91  98 2.91
  65  0.889  0.444  0.107-  44 2.89  43 2.89  66 2.89  68 2.89  63 2.89  62 2.89   6 2.89  32 2.89
                            31 2.89 102 2.91 103 2.91 104 2.91
  66  0.889  0.611  0.107- 101 2.87  43 2.89  65 2.89  48 2.89  68 2.89  67 2.89  69 2.89  31 2.89
                             9 2.89  36 2.89 104 2.91 107 2.91
  67  0.722  0.611  0.107-  92 2.88 101 2.89  54 2.89  53 2.89  68 2.89  66 2.89  72 2.89  69 2.89
                            30 2.89  36 2.89  33 2.89 106 2.91
  68  0.722  0.444  0.107-  91 2.88 101 2.89  53 2.89  67 2.89  50 2.89  66 2.89  65 2.89  63 2.89
                            29 2.89  31 2.89  30 2.89 102 2.91
  69  0.889  0.778  0.107-  48 2.89  47 2.89  70 2.89  72 2.89  66 2.89  67 2.89  10 2.89  36 2.89
                            35 2.89 106 2.90 107 2.91 108 2.92
  70  0.889  0.944  0.107-  47 2.89  69 2.89  40 2.89  72 2.89  71 2.89  61 2.89   1 2.89  35 2.89
                            28 2.89 105 2.90 108 2.91  99 2.92
  71  0.722  0.944  0.107-  58 2.89  57 2.89  72 2.89  70 2.89  64 2.89  61 2.89  34 2.89  28 2.89
                            25 2.89 105 2.91  96 2.91  98 2.92
  72  0.722  0.778  0.107-  57 2.89  71 2.89  54 2.89  70 2.89  69 2.89  67 2.89  35 2.89  33 2.89
                            34 2.89  95 2.90 106 2.91 105 2.91
  73  0.111  0.222  0.215-  99 2.88 100 2.88  79 2.89  74 2.89  78 2.89  76 2.90  39 2.91  40 2.91
                            38 2.92 116 2.94 110 2.94 111 2.94
  74  0.111  0.056  0.215-  76 2.88 108 2.89  99 2.89  75 2.89  73 2.89  81 2.89  40 2.91  37 2.91
                            47 2.91 109 2.94 111 2.94 112 2.94
  75  0.278  0.055  0.215-  85 2.88  81 2.89  76 2.89  84 2.89  74 2.89  86 2.89  46 2.91  37 2.92
                            52 2.92 122 2.93 121 2.93 112 2.94
  76  0.277  0.222  0.214-  74 2.88  75 2.89  90 2.89  85 2.89 125 2.90  37 2.90  79 2.90  73 2.90
                            38 2.90  51 2.91 122 2.94 111 2.95
  77  0.111  0.556  0.215-  80 2.89 104 2.89 103 2.89  78 2.89  82 2.89  83 2.89  43 2.91  42 2.91
                            44 2.91 114 2.93 115 2.93 120 2.94
  78  0.111  0.389  0.215-  79 2.89 100 2.89 103 2.89  77 2.89  80 2.89  73 2.89  44 2.91  41 2.91
                            39 2.91 116 2.94 113 2.94 115 2.94
  79  0.277  0.388  0.214- 126 2.87  78 2.89  73 2.89  38 2.89  41 2.89  90 2.89  76 2.90  56 2.90
                            80 2.90 125 2.90  89 2.91 116 2.95
  80  0.277  0.556  0.214- 126 2.87  77 2.89  42 2.89  83 2.89  78 2.89  89 2.89  94 2.90  41 2.90
                            55 2.90  79 2.90 129 2.92 115 2.95
  81  0.111  0.889  0.215- 107 2.88  75 2.89 108 2.89  82 2.89  84 2.89  74 2.89  48 2.91  46 2.91
                            47 2.91 118 2.93 112 2.94 119 2.94
  82  0.111  0.722  0.215- 107 2.88  83 2.89  81 2.89  84 2.89 104 2.89  77 2.89  45 2.91  48 2.91
                            43 2.91 117 2.93 120 2.94 119 2.94
  83  0.278  0.723  0.215-  84 2.88  82 2.89  93 2.89  80 2.89  77 2.89  94 2.89  45 2.90  60 2.91
                            42 2.91 129 2.91 120 2.94 130 2.94
  84  0.278  0.889  0.215-  83 2.88  86 2.89  82 2.89  93 2.89  75 2.89  81 2.89  59 2.91  45 2.91
                            46 2.91 121 2.94 130 2.94 119 2.94
  85  0.444  0.221  0.214- 128 2.87  75 2.88  86 2.88  52 2.88  76 2.89  88 2.90  51 2.90  91 2.90
                            50 2.90  90 2.91 122 2.95 123 2.95
  86  0.444  0.055  0.215-  85 2.88  84 2.89  93 2.89  88 2.89  75 2.89  87 2.89  59 2.91  52 2.91
                            49 2.91 123 2.93 124 2.93 121 2.94
  87  0.611  0.056  0.215-  88 2.88  97 2.89  96 2.89  98 2.89  93 2.89  86 2.89  64 2.91  58 2.91
                            49 2.91 134 2.94 124 2.94 133 2.94
  88  0.611  0.222  0.215-  87 2.88  91 2.89  97 2.89  86 2.89  85 2.90 102 2.90  49 2.90  63 2.91
                            50 2.91 137 2.92 123 2.94 134 2.94
  89  0.444  0.556  0.214- 127 2.87 126 2.88  94 2.89  55 2.89  92 2.89  54 2.89  95 2.89  80 2.89
                            56 2.90  90 2.91  79 2.91 132 2.92
  90  0.444  0.388  0.214- 127 2.86  51 2.88  56 2.89 128 2.89  76 2.89  79 2.89  53 2.90  91 2.90
                            85 2.91  89 2.91  92 2.91 125 2.92
  91  0.611  0.388  0.213- 138 2.86  50 2.87  68 2.88  53 2.89  88 2.89 128 2.89 102 2.89  85 2.90
                            90 2.90  92 2.92 101 2.92 137 2.94
  92  0.611  0.556  0.213- 138 2.86 127 2.87  54 2.88  67 2.88  95 2.89  53 2.89  89 2.89 106 2.89
                            90 2.91 101 2.92  91 2.92 141 2.92
  93  0.444  0.889  0.215-  94 2.88  83 2.89  86 2.89  84 2.89  96 2.89  87 2.89  60 2.91  58 2.91
                            59 2.91 124 2.94 131 2.94 130 2.94
  94  0.445  0.723  0.215-  93 2.88  89 2.89  96 2.89  83 2.89  95 2.90  80 2.90 132 2.90  60 2.91
                           129 2.91  57 2.91  55 2.91 131 2.94
  95  0.611  0.723  0.215-  92 2.89  96 2.89 105 2.89  89 2.89  94 2.90 106 2.90 132 2.90  72 2.90
                            57 2.90 141 2.90  54 2.91 142 2.93
  96  0.611  0.889  0.215-  95 2.89  94 2.89  87 2.89  93 2.89  98 2.89 105 2.90  71 2.91  57 2.91
                            58 2.91 142 2.92 133 2.94 131 2.94
  97  0.778  0.222  0.215-  88 2.89  87 2.89 102 2.89  98 2.89 100 2.89 103 2.90  64 2.91  63 2.91
                            62 2.92 134 2.94 140 2.94 135 2.94
  98  0.778  0.056  0.215-  97 2.89 105 2.89 100 2.89  87 2.89  99 2.89  96 2.89  61 2.91  64 2.91
                            71 2.92 133 2.94 136 2.94 135 2.94
  99  0.945  0.056  0.215-  73 2.88 105 2.89  74 2.89  98 2.89 100 2.89 108 2.89  40 2.91  61 2.91
                            70 2.92 136 2.94 110 2.94 109 2.94
 100  0.944  0.222  0.215-  73 2.88  98 2.89  78 2.89  97 2.89 103 2.89  99 2.89  62 2.91  39 2.91
                            61 2.92 113 2.94 110 2.94 135 2.94
 101  0.779  0.556  0.213- 138 2.85  66 2.87 104 2.88 107 2.89  68 2.89  67 2.89 106 2.89 102 2.90
                            92 2.92  91 2.92 139 2.94 144 2.94
 102  0.778  0.389  0.215-  91 2.89  97 2.89 103 2.89 101 2.90  88 2.90 104 2.90  63 2.90  65 2.91
                            68 2.91 137 2.92 139 2.92 140 2.95
 103  0.944  0.389  0.215- 104 2.89 102 2.89  77 2.89  78 2.89 100 2.89  97 2.90  65 2.91  44 2.91
                            62 2.91 113 2.94 114 2.94 140 2.94
 104  0.945  0.556  0.215- 101 2.88  77 2.89 103 2.89  82 2.89 107 2.90 102 2.90  43 2.91  66 2.91
                            65 2.91 139 2.92 114 2.94 117 2.94
 105  0.778  0.889  0.215-  99 2.89  98 2.89 108 2.89  95 2.89 106 2.89  96 2.90  70 2.90  71 2.91
                            72 2.91 142 2.92 136 2.94 143 2.94
 106  0.778  0.723  0.215- 108 2.89 107 2.89 101 2.89  92 2.89 141 2.89 105 2.89  95 2.90  69 2.90
                            72 2.91  67 2.91 144 2.93 143 2.94
 107  0.945  0.723  0.215-  81 2.88  82 2.88 101 2.89 108 2.89 106 2.89 104 2.90  48 2.90  69 2.91
                            66 2.91 144 2.92 118 2.94 117 2.94
 108  0.945  0.889  0.215- 107 2.89  81 2.89  74 2.89 106 2.89 105 2.89  99 2.89  47 2.91  70 2.91
                            69 2.92 118 2.93 143 2.94 109 2.94
 109  0.000  0.000  0.325- 112 2.89 111 2.89 143 2.89 118 2.89 136 2.89 110 2.90 108 2.94  74 2.94
                            99 2.94
 110  1.000  0.167  0.325- 136 2.89 116 2.89 135 2.89 113 2.89 111 2.90 109 2.90  73 2.94 100 2.94
                            99 2.94
 111  0.167  0.167  0.325- 125 2.87 122 2.88 109 2.89 112 2.89 116 2.89 110 2.90  74 2.94  73 2.94
                            76 2.95
 112  0.167  1.000  0.325- 118 2.89 122 2.89 109 2.89 121 2.89 119 2.89 111 2.89  75 2.94  81 2.94
                            74 2.94
 113  1.000  0.334  0.324- 116 2.89 140 2.89 114 2.89 110 2.89 135 2.89 115 2.89 100 2.94 103 2.94
                            78 2.94
 114  0.000  0.500  0.324- 139 2.89 117 2.89 113 2.89 115 2.89 120 2.89 140 2.90  77 2.93 104 2.94
                           103 2.94
 115  0.167  0.500  0.324- 126 2.88 120 2.89 114 2.89 129 2.89 116 2.89 113 2.89  77 2.93  78 2.94
                            80 2.95
 116  0.166  0.333  0.324- 125 2.88 126 2.89 110 2.89 113 2.89 111 2.89 115 2.89  73 2.94  78 2.94
                            79 2.95
 117  0.000  0.667  0.324- 144 2.89 119 2.89 114 2.89 118 2.89 120 2.89 139 2.90  82 2.93 104 2.94
                           107 2.94
 118  0.000  0.834  0.324- 144 2.89 112 2.89 143 2.89 119 2.89 109 2.89 117 2.89  81 2.93 108 2.93
                           107 2.94
 119  0.167  0.833  0.325- 121 2.89 117 2.89 118 2.89 130 2.89 112 2.89 120 2.89  82 2.94  81 2.94
                            84 2.94
 120  0.167  0.667  0.324- 130 2.88 129 2.89 115 2.89 119 2.89 117 2.89 114 2.89  82 2.94  77 2.94
                            83 2.94
 121  0.333  0.000  0.324- 123 2.89 119 2.89 112 2.89 122 2.89 130 2.89 124 2.90  75 2.93  86 2.94
                            84 2.94
 122  0.333  0.167  0.324- 128 2.88 111 2.88 125 2.89 112 2.89 121 2.89 123 2.90  75 2.93  76 2.94
                            85 2.95
 123  0.500  0.166  0.324- 128 2.87 121 2.89 124 2.89 137 2.89 134 2.89 122 2.90  86 2.93  88 2.94
                            85 2.95
 124  0.500  1.000  0.324- 123 2.89 131 2.89 130 2.89 134 2.89 121 2.90 133 2.90  86 2.93  93 2.94
                            87 2.94
 125  0.332  0.332  0.322- 111 2.87 116 2.88 122 2.89 126 2.89  76 2.90  79 2.90 127 2.90  90 2.92
                           128 2.92
 126  0.332  0.499  0.320-  79 2.87  80 2.87 115 2.88  89 2.88 116 2.89 125 2.89 129 2.90 127 2.91
                           132 2.92
 127  0.500  0.499  0.319-  90 2.86  92 2.87  89 2.87 138 2.90 125 2.90 128 2.90 126 2.91 132 2.92
                           141 2.92
 128  0.500  0.332  0.320-  85 2.87 123 2.87 122 2.88 137 2.89  91 2.89  90 2.89 127 2.90 125 2.92
                           138 2.92
 129  0.334  0.667  0.323- 130 2.89 131 2.89 120 2.89 115 2.89 132 2.90 126 2.90  94 2.91  83 2.91
                            80 2.92
 130  0.333  0.833  0.325- 120 2.88 129 2.89 119 2.89 124 2.89 131 2.89 121 2.89  84 2.94  93 2.94
                            83 2.94
 131  0.500  0.833  0.324- 132 2.88 129 2.89 124 2.89 130 2.89 133 2.89 142 2.90  93 2.94  94 2.94
                            96 2.94
 132  0.501  0.668  0.322- 131 2.88 142 2.89 141 2.90 129 2.90  95 2.90  94 2.90 127 2.92  89 2.92
                           126 2.92
 133  0.667  1.000  0.324- 142 2.88 135 2.89 136 2.89 134 2.89 131 2.89 124 2.90  98 2.94  87 2.94
                            96 2.94
 134  0.667  0.167  0.324- 137 2.89 140 2.89 135 2.89 133 2.89 124 2.89 123 2.89  97 2.94  87 2.94
                            88 2.94
 135  0.833  0.167  0.325- 110 2.89 140 2.89 136 2.89 134 2.89 133 2.89 113 2.89  98 2.94  97 2.94
                           100 2.94
 136  0.834  0.000  0.324- 142 2.88 110 2.89 135 2.89 109 2.89 133 2.89 143 2.90  99 2.94  98 2.94
                           105 2.94
 137  0.667  0.333  0.323- 128 2.89 134 2.89 140 2.89 123 2.89 138 2.89 139 2.90  88 2.92 102 2.92
                            91 2.94
 138  0.668  0.500  0.318- 101 2.85  91 2.86  92 2.86 139 2.88 144 2.89 137 2.89 127 2.90 141 2.91
                           128 2.92
 139  0.834  0.500  0.323- 138 2.88 114 2.89 140 2.89 117 2.90 144 2.90 137 2.90 104 2.92 102 2.92
                           101 2.94
 140  0.833  0.333  0.325- 113 2.89 135 2.89 134 2.89 139 2.89 137 2.89 114 2.90  97 2.94 103 2.94
                           102 2.95
 141  0.668  0.668  0.322- 143 2.88 144 2.89 142 2.89 106 2.89 132 2.90  95 2.90 138 2.91 127 2.92
                            92 2.92
 142  0.667  0.834  0.324- 133 2.88 136 2.88 143 2.89 141 2.89 132 2.89 131 2.90 105 2.92  96 2.92
                            95 2.93
 143  0.834  0.833  0.324- 141 2.88 118 2.89 109 2.89 142 2.89 144 2.89 136 2.90 108 2.94 105 2.94
                           106 2.94
 144  0.834  0.667  0.323- 118 2.89 117 2.89 141 2.89 143 2.89 138 2.89 139 2.90 107 2.92 106 2.93
                           101 2.94
 145  0.636  0.479  0.459- 162 1.10 161 1.11 163 1.12 146 1.49
 146  0.565  0.503  0.455- 147 1.40 151 1.42 145 1.49
 147  0.585  0.592  0.453- 154 1.09 148 1.40 146 1.40
 148  0.519  0.617  0.453- 155 1.09 147 1.40 149 1.41
 149  0.429  0.550  0.455- 153 1.39 150 1.41 148 1.41
 150  0.407  0.460  0.454- 156 1.10 149 1.41 151 1.41
 151  0.473  0.436  0.456- 152 1.38 150 1.41 146 1.42
 152  0.450  0.347  0.458- 158 1.01 157 1.02 151 1.38
 153  0.362  0.572  0.459- 159 1.02 160 1.02 149 1.39
 154  0.655  0.644  0.453- 147 1.09
 155  0.537  0.687  0.453- 148 1.09
 156  0.337  0.407  0.455- 150 1.10
 157  0.497  0.331  0.448- 152 1.02
 158  0.388  0.302  0.444- 152 1.01
 159  0.377  0.631  0.442- 153 1.02
 160  0.299  0.523  0.448- 153 1.02
 161  0.635  0.448  0.503- 145 1.11
 162  0.703  0.538  0.452- 145 1.10
 163  0.628  0.430  0.423- 145 1.12
 
  LATTYP: Found a hexagonal cell.
 ALAT       =    17.3505005836
 C/A-ratio  =     1.2727759369
  
  Lattice vectors:
  
 A1 = (  17.3505005835,   0.0000000000,   0.0000000000)
 A2 = (  -8.6752502919,  15.0259742739,   0.0000000000)
 A3 = (   0.0000000000,   0.0000000000,  22.0832996368)


Analysis of symmetry for initial positions (statically):
=====================================================================
 Subroutine PRICEL returns:
 Original cell was already a primitive cell.
 

 Routine SETGRP: Setting up the symmetry group for a 
 hexagonal supercell.


 Subroutine GETGRP returns: Found  1 space group operations
 (whereof  1 operations were pure point group operations)
 out of a pool of 24 trial point group operations.


The static configuration has the point symmetry C_1 .


Analysis of symmetry for dynamics (positions and initial velocities):
=====================================================================
 Subroutine PRICEL returns:
 Original cell was already a primitive cell.
 

 Routine SETGRP: Setting up the symmetry group for a 
 hexagonal supercell.


 Subroutine GETGRP returns: Found  1 space group operations
 (whereof  1 operations were pure point group operations)
 out of a pool of 24 trial point group operations.


The dynamic configuration has the point symmetry C_1 .


Analysis of constrained symmetry for selective dynamics:
=====================================================================
 Subroutine PRICEL returns:
 Original cell was already a primitive cell.
 

 Routine SETGRP: Setting up the symmetry group for a 
 hexagonal supercell.


 Subroutine GETGRP returns: Found  1 space group operations
 (whereof  1 operations were pure point group operations)
 out of a pool of 24 trial point group operations.


The constrained configuration has the point symmetry C_1 .


 Subroutine INISYM returns: Found  1 space group operations
 (whereof  1 operations are pure point group operations),
 and found     1 'primitive' translations

 
 
 KPOINTS: K-POINTS                                

Automatic generation of k-mesh.
Space group operators:
 irot       det(A)        alpha          n_x          n_y          n_z        tau_x        tau_y        tau_z
    1     1.000000     0.000000     1.000000     0.000000     0.000000     0.000000     0.000000     0.000000
 
 Subroutine IBZKPT returns following result:
 ===========================================
 
 Found      5 irreducible k-points:
 
 Following reciprocal coordinates:
            Coordinates               Weight
  0.000000  0.000000  0.000000      1.000000
  0.333333  0.000000  0.000000      2.000000
  0.000000  0.333333  0.000000      2.000000
  0.333333  0.333333  0.000000      2.000000
 -0.333333  0.333333  0.000000      2.000000
 
 Following cartesian coordinates:
            Coordinates               Weight
  0.000000  0.000000  0.000000      1.000000
  0.019212  0.011092  0.000000      2.000000
  0.000000  0.022184  0.000000      2.000000
  0.019212  0.033276  0.000000      2.000000
 -0.019212  0.011092  0.000000      2.000000
 


--------------------------------------------------------------------------------------------------------




 Dimension of arrays:
   k-points           NKPTS =      5   k-points in BZ     NKDIM =      5   number of bands    NBANDS=    984
   number of dos      NEDOS =    301   number of ions     NIONS =    163
   non local maximal  LDIM  =      6   non local SUM 2l+1 LMDIM =     18
   total plane-waves  NPLWV = 972000
   max r-space proj   IRMAX =   2084   max aug-charges    IRDMAX=   8500
   dimension x,y,z NGX =    90 NGY =   90 NGZ =  120
   dimension x,y,z NGXF=   180 NGYF=  180 NGZF=  240
   support grid    NGXF=   180 NGYF=  180 NGZF=  240
   ions per type =             144   7   2  10
   NGX,Y,Z   is equivalent  to a cutoff of   8.62,  8.62,  9.03 a.u.
   NGXF,Y,Z  is equivalent  to a cutoff of  17.25, 17.25, 18.07 a.u.

 SYSTEM =  x                                       
 POSCAR =  Ag  C  N  H                             

 Startparameter for this run:
   NWRITE =      0    write-flag & timer
   PREC   = normal    normal or accurate (medium, high low for compatibility)
   ISTART =      0    job   : 0-new  1-cont  2-samecut
   ICHARG =      2    charge: 1-file 2-atom 10-const
   ISPIN  =      1    spin polarized calculation?
   LNONCOLLINEAR =      F non collinear calculations
   LSORBIT =      F    spin-orbit coupling
   INIWAV =      1    electr: 0-lowe 1-rand  2-diag
   LASPH  =      F    aspherical Exc in radial PAW
   METAGGA=      F    non-selfconsistent MetaGGA calc.

 Electronic Relaxation 1
   ENCUT  =  450.0 eV  33.07 Ry    5.75 a.u.  30.01 30.01 38.20*2*pi/ulx,y,z
   ENINI  =  450.0     initial cutoff
   ENAUG  =  644.9 eV  augmentation charge cutoff
   NELM   =     50;   NELMIN=  5; NELMDL= -7     # of ELM steps 
   EDIFF  = 0.1E-04   stopping-criterion for ELM
   LREAL  =      T    real-space projection
   NLSPLINE    = F    spline interpolate recip. space projectors
   LCOMPAT=      F    compatible to vasp.4.4
   GGA_COMPAT  = T    GGA compatible to vasp.4.4-vasp.4.6
   LMAXPAW     = -100 max onsite density
   LMAXMIX     =    2 max onsite mixed and CHGCAR
   VOSKOWN=      0    Vosko Wilk Nusair interpolation
   ROPT   =   -0.00050  -0.00050  -0.00050  -0.00050
 Ionic relaxation
   EDIFFG = -.2E-01   stopping-criterion for IOM
   NSW    =    300    number of steps for IOM
   NBLOCK =      1;   KBLOCK =    300    inner block; outer block 
   IBRION =      2    ionic relax: 0-MD 1-quasi-New 2-CG
   NFREE  =      2    steps in history (QN), initial steepest desc. (CG)
   ISIF   =      2    stress and relaxation
   IWAVPR =     11    prediction:  0-non 1-charg 2-wave 3-comb
   ISYM   =      2    0-nonsym 1-usesym 2-fastsym
   LCORR  =      T    Harris-Foulkes like correction to forces

   POTIM  = 0.1500    time-step for ionic-motion
   TEIN   =    0.0    initial temperature
   TEBEG  =    0.0;   TEEND  =   0.0 temperature during run
   SMASS  =  -3.00    Nose mass-parameter (am)
   estimated Nose-frequenzy (Omega)   =  0.10E-29 period in steps =****** mass=  -0.688E-26a.u.
   SCALEE = 1.0000    scale energy and forces
   NPACO  =    256;   APACO  = 16.0  distance and # of slots for P.C.
   PSTRESS=    0.0 pullay stress

  Mass of Ions in am
   POMASS = 107.87 12.01 14.00  1.00
  Ionic Valenz
   ZVAL   =  11.00  4.00  5.00  1.00
  Atomic Wigner-Seitz radii
   RWIGS  =  -1.00 -1.00 -1.00 -1.00
  virtual crystal weights 
   VCA    =   1.00  1.00  1.00  1.00
   NELECT =    1632.0000    total number of electrons
   NUPDOWN=      -1.0000    fix difference up-down

 DOS related values:
   EMIN   =  10.00;   EMAX   =-10.00  energy-range for DOS
   EFERMI =   0.00
   ISMEAR =     0;   SIGMA  =   0.03  broadening in eV -4-tet -1-fermi 0-gaus

 Electronic relaxation 2 (details)
   IALGO  =     68    algorithm
   LDIAG  =      T    sub-space diagonalisation (order eigenvalues)
   LSUBROT=      F    optimize rotation matrix (better conditioning)
   TURBO    =      0    0=normal 1=particle mesh
   IRESTART =      0    0=no restart 2=restart with 2 vectors
   NREBOOT  =      0    no. of reboots
   NMIN     =      0    reboot dimension
   EREF     =   0.00    reference energy to select bands
   IMIX   =      4    mixing-type and parameters
     AMIX     =   0.40;   BMIX     =  1.00
     AMIX_MAG =   1.60;   BMIX_MAG =  1.00
     AMIN     =   0.10
     WC   =   100.;   INIMIX=   1;  MIXPRE=   1;  MAXMIX= -45

 Intra band minimization:
   WEIMIN = 0.0010     energy-eigenvalue tresh-hold
   EBREAK =  0.25E-08  absolut break condition
   DEPER  =   0.30     relativ break condition  

   TIME   =   0.40     timestep for ELM

  volume/ion in A,a.u.               =      35.32       238.36
  Fermi-wavevector in a.u.,A,eV,Ry     =   1.075413  2.032236 15.735321  1.156513
  Thomas-Fermi vector in A             =   2.211269
 
 Write flags
   LWAVE        =      F    write WAVECAR
   LDOWNSAMPLE  =      F    k-point downsampling of WAVECAR
   LCHARG       =      F    write CHGCAR
   LVTOT        =      F    write LOCPOT, total local potential
   LVHAR        =      F    write LOCPOT, Hartree potential only
   LELF         =      F    write electronic localiz. function (ELF)
   LORBIT       =      0    0 simple, 1 ext, 2 COOP (PROOUT), +10 PAW based schemes


 Dipole corrections
   LMONO  =      F    monopole corrections only (constant potential shift)
   LDIPOL =      T    correct potential (dipole corrections)
   IDIPOL =      3    1-x, 2-y, 3-z, 4-all directions 
   EPSILON=  1.0000000 bulk dielectric constant

 Exchange correlation treatment:
   GGA     =    PE    GGA type
   LEXCH   =     8    internal setting for exchange type
   VOSKOWN=      0    Vosko Wilk Nusair interpolation
   LHFCALC =     F    Hartree Fock is set to
   LHFONE  =     F    Hartree Fock one center treatment
   AEXX    =    0.0000 exact exchange contribution

 Linear response parameters
   LEPSILON=     F    determine dielectric tensor
   LRPA    =     F    only Hartree local field effects (RPA)
   LNABLA  =     F    use nabla operator in PAW spheres
   LVEL    =     F    velocity operator in full k-point grid
   LINTERFAST=   F  fast interpolation
   KINTER  =     0    interpolate to denser k-point grid
   CSHIFT  =0.1000    complex shift for real part using Kramers Kronig
   OMEGAMAX=  -1.0    maximum frequency
   DEG_THRESHOLD= 0.2000000E-02 threshold for treating states as degnerate
   RTIME   =   -0.100 relaxation time in fs
  (WPLASMAI=    0.000 imaginary part of plasma frequency in eV, 0.658/RTIME)
   DFIELD  = 0.0000000 0.0000000 0.0000000 field for delta impulse in time
 
 Orbital magnetization related:
   ORBITALMAG=     F  switch on orbital magnetization
   LCHIMAG   =     F  perturbation theory with respect to B field
   DQ        =  0.001000  dq finite difference perturbation B field
   LLRAUG    =     F  two centre corrections for induced B field



--------------------------------------------------------------------------------------------------------


 conjugate gradient relaxation of ions
   using selective dynamics as specified on POSCAR
 charge density and potential will be updated during run
 non-spin polarized calculation
 RMM-DIIS sequential band-by-band and
  variant of blocked Davidson during initial phase
 perform sub-space diagonalisation
    before iterative eigenvector-optimisation
 modified Broyden-mixing scheme, WC =      100.0
 initial mixing is a Kerker type mixing with AMIX =  0.4000 and BMIX =      1.0000
 Hartree-type preconditioning will be used
 using additional bands          168
 real space projection scheme for non local part
 use partial core corrections
 calculate Harris-corrections to forces 
   (improved forces if not selfconsistent)
 use gradient corrections 
 use of overlap-Matrix (Vanderbilt PP)
 Gauss-broadening in eV      SIGMA  =   0.03


--------------------------------------------------------------------------------------------------------


  energy-cutoff  :      450.00
  volume of cell :     5757.30
      direct lattice vectors                 reciprocal lattice vectors
    17.350500584  0.000000000  0.000000000     0.057635225  0.033275713  0.000000000
    -8.675250292 15.025974274  0.000000000     0.000000000  0.066551425  0.000000000
     0.000000000  0.000000000 22.083299637     0.000000000  0.000000000  0.045283088

  length of vectors
    17.350500584 17.350500584 22.083299637     0.066551425  0.066551425  0.045283088


 
 k-points in units of 2pi/SCALE and weight: K-POINTS                                
   0.00000000  0.00000000  0.00000000       0.111
   0.01921174  0.01109190  0.00000000       0.222
   0.00000000  0.02218381  0.00000000       0.222
   0.01921174  0.03327571  0.00000000       0.222
  -0.01921174  0.01109190  0.00000000       0.222
 
 k-points in reciprocal lattice and weights: K-POINTS                                
   0.00000000  0.00000000  0.00000000       0.111
   0.33333333  0.00000000  0.00000000       0.222
   0.00000000  0.33333333  0.00000000       0.222
   0.33333333  0.33333333  0.00000000       0.222
  -0.33333333  0.33333333  0.00000000       0.222
 
 position of ions in fractional coordinates (direct lattice) 
   0.00000000  0.00000000  0.00000000
   1.00000000  0.16666667  0.00000000
   0.16666667  0.16666667  0.00000000
   0.16666667  0.00000000  0.00000000
   0.00000000  0.33333333  0.00000000
   0.00000000  0.50000000  0.00000000
   0.16666667  0.50000000  0.00000000
   0.16666667  0.33333333  0.00000000
   0.00000000  0.66666667  0.00000000
   1.00000000  0.83333333  0.00000000
   0.16666667  0.83333333  0.00000000
   0.16666667  0.66666667  0.00000000
   0.33333333  0.00000000  0.00000000
   0.33333333  0.16666667  0.00000000
   0.50000000  0.16666667  0.00000000
   0.50000000  0.00000000  0.00000000
   0.33333333  0.33333333  0.00000000
   0.33333333  0.50000000  0.00000000
   0.50000000  0.50000000  0.00000000
   0.50000000  0.33333333  0.00000000
   0.33333333  0.66666667  0.00000000
   0.33333333  0.83333333  0.00000000
   0.50000000  0.83333333  0.00000000
   0.50000000  0.66666667  0.00000000
   0.66666667  0.00000000  0.00000000
   0.66666667  0.16666667  0.00000000
   0.83333333  0.16666667  0.00000000
   0.83333333  0.00000000  0.00000000
   0.66666667  0.33333333  0.00000000
   0.66666667  0.50000000  0.00000000
   0.83333333  0.50000000  0.00000000
   0.83333333  0.33333333  0.00000000
   0.66666667  0.66666667  0.00000000
   0.66666667  0.83333333  0.00000000
   0.83333333  0.83333333  0.00000000
   0.83333333  0.66666667  0.00000000
   0.22222334  0.11111000  0.10692000
   0.22222334  0.27777666  0.10692000
   0.05555666  0.27777666  0.10692000
   0.05555666  0.11111000  0.10692000
   0.22222334  0.44444333  0.10692000
   0.22222334  0.61110999  0.10692000
   0.05555666  0.61110999  0.10692000
   0.05555666  0.44444333  0.10692000
   0.22222334  0.77777667  0.10692000
   0.22222334  0.94444333  0.10692000
   0.05555666  0.94444333  0.10692000
   0.05555666  0.77777667  0.10692000
   0.55555667  0.11111000  0.10692000
   0.55555667  0.27777666  0.10692000
   0.38889000  0.27777666  0.10692000
   0.38889000  0.11111000  0.10692000
   0.55555667  0.44444333  0.10692000
   0.55555667  0.61110999  0.10692000
   0.38889000  0.61110999  0.10692000
   0.38889000  0.44444333  0.10692000
   0.55555667  0.77777667  0.10692000
   0.55555667  0.94444333  0.10692000
   0.38889000  0.94444333  0.10692000
   0.38889000  0.77777667  0.10692000
   0.88889001  0.11111000  0.10692000
   0.88889001  0.27777666  0.10692000
   0.72222333  0.27777666  0.10692000
   0.72222333  0.11111000  0.10692000
   0.88889001  0.44444333  0.10692000
   0.88889001  0.61110999  0.10692000
   0.72222333  0.61110999  0.10692000
   0.72222333  0.44444333  0.10692000
   0.88889001  0.77777667  0.10692000
   0.88889001  0.94444333  0.10692000
   0.72222333  0.94444333  0.10692000
   0.72222333  0.77777667  0.10692000
   0.11053701  0.22205777  0.21502358
   0.11111836  0.05570681  0.21499903
   0.27751358  0.05525011  0.21511738
   0.27722654  0.22150979  0.21443142
   0.11105324  0.55565647  0.21503748
   0.11099573  0.38903290  0.21482421
   0.27705302  0.38838000  0.21394823
   0.27744978  0.55587104  0.21400639
   0.11111927  0.88888005  0.21496981
   0.11124860  0.72244315  0.21501820
   0.27771413  0.72261243  0.21464275
   0.27788870  0.88886672  0.21501263
   0.44367466  0.22085681  0.21398041
   0.44427280  0.05523590  0.21503402
   0.61122818  0.05555248  0.21498669
   0.61093427  0.22157588  0.21466194
   0.44439447  0.55612419  0.21392110
   0.44376475  0.38834860  0.21371456
   0.61093540  0.38795901  0.21315963
   0.61110524  0.55622735  0.21333313
   0.44442441  0.88882503  0.21498216
   0.44452546  0.72260913  0.21472082
   0.61145882  0.72269181  0.21450051
   0.61121951  0.88893679  0.21487477
   0.77762232  0.22209804  0.21505324
   0.77800534  0.05579468  0.21501941
   0.94470172  0.05582600  0.21502033
   0.94446051  0.22242243  0.21503068
   0.77927093  0.55625972  0.21330806
   0.77774065  0.38863565  0.21456001
   0.94447535  0.38914423  0.21492464
   0.94481459  0.55579128  0.21478317
   0.77833785  0.88942206  0.21479327
   0.77835890  0.72258368  0.21451757
   0.94523799  0.72293241  0.21468526
   0.94483036  0.88914251  0.21500358
   0.00018109  0.00008810  0.32454748
   0.99980402  0.16680801  0.32456832
   0.16662335  0.16669956  0.32462788
   0.16653922  0.99995715  0.32455137
   0.99995015  0.33362221  0.32443053
   0.00021046  0.50032512  0.32435408
   0.16686391  0.50033362  0.32431094
   0.16614900  0.33317404  0.32435150
   0.00029921  0.66688515  0.32433724
   0.00022060  0.83351325  0.32435301
   0.16673455  0.83344228  0.32461376
   0.16703410  0.66696364  0.32442196
   0.33311980  0.00000897  0.32443048
   0.33279985  0.16652331  0.32402005
   0.49966361  0.16609016  0.32419288
   0.49988128  0.99981828  0.32434924
   0.33170967  0.33236060  0.32167650
   0.33231562  0.49941807  0.31977765
   0.49981924  0.49902585  0.31912588
   0.49962862  0.33150881  0.31975887
   0.33354334  0.66709594  0.32254212
   0.33324049  0.83323344  0.32450658
   0.50002028  0.83331766  0.32442579
   0.50077400  0.66752449  0.32209984
   0.66689386  0.99998595  0.32447196
   0.66675035  0.16659487  0.32448296
   0.83335941  0.16670781  0.32476048
   0.83369527  0.00033132  0.32447332
   0.66650971  0.33281336  0.32308501
   0.66778764  0.50014663  0.31777576
   0.83359609  0.49987162  0.32317212
   0.83323836  0.33316599  0.32452760
   0.66787544  0.66769866  0.32187977
   0.66747704  0.83412920  0.32361434
   0.83372303  0.83347680  0.32432738
   0.83403134  0.66704783  0.32327515
   0.63596290  0.47913697  0.45883069
   0.56456176  0.50319819  0.45503589
   0.58470841  0.59199891  0.45279451
   0.51945965  0.61685599  0.45288231
   0.42902270  0.54988707  0.45497382
   0.40700156  0.46008363  0.45402954
   0.47345789  0.43588059  0.45563955
   0.44985460  0.34739385  0.45842499
   0.36216815  0.57150278  0.45930580
   0.65453835  0.64436391  0.45267220
   0.53732092  0.68665402  0.45305832
   0.33696734  0.40728983  0.45457669
   0.49710283  0.33130609  0.44780117
   0.38815233  0.30219954  0.44353969
   0.37725039  0.63149158  0.44158558
   0.29942319  0.52278785  0.44804550
   0.63549982  0.44788553  0.50275620
   0.70257609  0.53760112  0.45225048
   0.62805743  0.42989908  0.42331676
 
 position of ions in cartesian coordinates  (Angst):
   0.00000000  0.00000000  0.00000000
  15.90462553  2.50432905  0.00000000
   1.44587505  2.50432905  0.00000000
   2.89175010  0.00000000  0.00000000
  -2.89175010  5.00865809  0.00000000
  -4.33762515  7.51298714  0.00000000
  -1.44587505  7.51298714  0.00000000
  -0.00000000  5.00865809  0.00000000
  -5.78350019 10.01731618  0.00000000
  10.12112534 12.52164523  0.00000000
  -4.33762515 12.52164523  0.00000000
  -2.89175010 10.01731618  0.00000000
   5.78350019  0.00000000  0.00000000
   4.33762515  2.50432905  0.00000000
   7.22937524  2.50432905  0.00000000
   8.67525029  0.00000000  0.00000000
   2.89175010  5.00865809  0.00000000
   1.44587505  7.51298714  0.00000000
   4.33762515  7.51298714  0.00000000
   5.78350019  5.00865809  0.00000000
  -0.00000000 10.01731618  0.00000000
  -1.44587505 12.52164523  0.00000000
   1.44587505 12.52164523  0.00000000
   2.89175010 10.01731618  0.00000000
  11.56700039  0.00000000  0.00000000
  10.12112534  2.50432905  0.00000000
  13.01287544  2.50432905  0.00000000
  14.45875049  0.00000000  0.00000000
   8.67525029  5.00865809  0.00000000
   7.22937524  7.51298714  0.00000000
  10.12112534  7.51298714  0.00000000
  11.56700039  5.00865809  0.00000000
   5.78350019 10.01731618  0.00000000
   4.33762515 12.52164523  0.00000000
   7.22937524 12.52164523  0.00000000
   8.67525029 10.01731618  0.00000000
   2.89177914  1.66953603  2.36114631
   1.44590417  4.17386493  2.36114631
  -1.44584609  4.17386493  2.36114631
   0.00002887  1.66953603  2.36114631
   0.00002904  6.67819412  2.36114631
  -1.44584592  9.18252302  2.36114631
  -4.33759619  9.18252302  2.36114631
  -2.89172122  6.67819412  2.36114631
  -2.89172106 11.68685221  2.36114631
  -4.33759602 14.19118111  2.36114631
  -7.22934629 14.19118111  2.36114631
  -5.78347132 11.68685221  2.36114631
   8.67527933  1.66953603  2.36114631
   7.22940437  4.17386493  2.36114631
   4.33765410  4.17386493  2.36114631
   5.78352907  1.66953603  2.36114631
   5.78352924  6.67819412  2.36114631
   4.33765427  9.18252302  2.36114631
   1.44590401  9.18252302  2.36114631
   2.89177897  6.67819412  2.36114631
   2.89177914 11.68685221  2.36114631
   1.44590417 14.19118111  2.36114631
  -1.44584609 14.19118111  2.36114631
   0.00002887 11.68685221  2.36114631
  14.45877953  1.66953603  2.36114631
  13.01290456  4.17386493  2.36114631
  10.12115430  4.17386493  2.36114631
  11.56702926  1.66953603  2.36114631
  11.56702943  6.67819412  2.36114631
  10.12115447  9.18252302  2.36114631
   7.22940420  9.18252302  2.36114631
   8.67527917  6.67819412  2.36114631
   8.67527933 11.68685221  2.36114631
   7.22940437 14.19118111  2.36114631
   4.33765410 14.19118111  2.36114631
   5.78352907 11.68685221  2.36114631
  -0.00853437  3.33663437  4.74843025
   1.44468876  0.83704904  4.74788808
   4.33569102  0.83018678  4.75050164
   2.88836634  3.32840038  4.73535339
  -2.89362962  8.34927978  4.74873704
  -1.44912635  5.84559831  4.74402731
   1.43771479  5.83578795  4.72468279
  -0.00842779  8.35250400  4.72596730
  -5.78328204 13.35628884  4.74724274
  -4.33715626 10.85541224  4.74831138
  -1.45036459 10.85795584  4.74002018
  -2.88963325 13.35608847  4.74818842
   5.78198942  3.31858873  4.72539360
   7.22917017  0.82997323  4.74866080
  10.12318322  0.83473014  4.74761556
   8.67778914  3.32939348  4.74044386
   2.88594998  8.35630782  4.72408375
   4.33051927  5.83531613  4.71952263
   7.23439346  5.82946204  4.70726791
   5.77757036  8.35785790  4.71109940
   0.00020634 13.35546202  4.74751551
   1.44392420 10.85790613  4.74174419
   4.33958420 10.85914856  4.73687907
   2.89321527 13.35714137  4.74514397
  11.56538045  3.33723939  4.74908505
  13.01474936  0.83836941  4.74833803
  15.90674315  0.83884010  4.74835841
  14.45729245  3.34211373  4.74858704
   8.69504841  8.35834418  4.71054589
  10.12267810  5.83962929  4.73819294
  13.01119645  5.84727118  4.74624524
  11.57137765  8.35130549  4.74312110
   5.78859236 13.36443293  4.74334406
   7.23632232 10.85752377  4.73725573
  10.12873266 10.86276383  4.74095896
   8.67974594 13.36023247  4.74798858
   0.00237774  0.00132385  7.16707923
  15.89999893  2.50645290  7.16753937
   1.44483820  2.50482327  7.16885472
  -5.78533968 15.02533044  7.16716506
  14.45537950  5.01299871  7.16449658
  -4.33679416  7.51787245  7.16280842
  -1.44534709  7.51800009  7.16185576
  -0.00759985  5.00626459  7.16275131
  -5.78020414 10.02059905  7.16243650
  -7.22710849 12.52434864  7.16278475
  -4.33739252 12.52328227  7.16854302
  -2.88795124 10.02177843  7.16430740
   5.77971743  0.00013478  7.16449555
   4.32961266  2.50217498  7.15543185
   7.22854002  2.49566647  7.15924851
  -0.00048346 15.02324380  7.16270135
   2.87201731  4.99404189  7.10367851
   1.43326564  7.50424308  7.06174562
   4.34293994  7.49834957  7.04735239
   5.79288472  4.98124287  7.06133088
  -0.00008030 10.02376647  7.12279420
  -1.44661929 12.52014426  7.16617613
   1.44636283 12.52140974  7.16439197
   2.89773746 10.03020582  7.11302733
   2.89581391 15.02576323  7.16541142
  10.12320015  2.50325019  7.16565452
  13.01297091  2.50494726  7.17178300
  14.46215596  0.00497837  7.16544161
   8.67703793  5.00084506  7.13478316
   7.24755259  7.51519034  7.01753733
  10.12679797  7.51105806  7.13670676
  11.56680420  5.00614365  7.16664022
   5.79552014 10.03282290  7.10816735
   4.34478120 12.53360394  7.14647252
   7.23489206 12.52380102  7.16221869
   8.68405437 10.02304354  7.13898192
   6.87764152  7.19949984 10.13249562
   5.43005887  7.56104303 10.04869386
   5.00924492  8.89536042  9.99919691
   3.66150484  9.26886228 10.00113572
   2.67335066  8.26258899 10.04732309
   3.07034018  6.91320481 10.02647041
   4.43335810  6.54953054 10.06202481
   4.79147393  5.21993106 10.12353646
   1.32586910  8.58738611 10.14298751
   5.76654990  9.68219552  9.99649588
   3.36589156 10.31764557 10.00502269
   2.31321073  6.11992654 10.03855336
   5.75081976  4.97819676  9.88892748
   4.11298051  4.54084252  9.79481988
   1.06713567  9.48877619  9.75166671
   0.65982680  7.85539672  9.89432304
   7.14072094  6.72991652 11.10251583
   7.52622258  8.07798064  9.98718283
   7.16762874  6.45965255  9.34823091
 


--------------------------------------------------------------------------------------------------------


 k-point  1 :   0.0000 0.0000 0.0000  plane waves:  124805
 k-point  2 :   0.3333 0.0000 0.0000  plane waves:  124786
 k-point  3 :   0.0000 0.3333 0.0000  plane waves:  124786
 k-point  4 :   0.3333 0.3333 0.0000  plane waves:  124836
 k-point  5 :  -0.3333 0.3333 0.0000  plane waves:  124786

 maximum and minimum number of plane-waves per node :     31225    31187

 maximum number of plane-waves:    124836
 maximum index in each direction: 
   IXMAX=   30   IYMAX=   30   IZMAX=   38
   IXMIN=  -30   IYMIN=  -30   IZMIN=  -38


 real space projection operators:
  total allocation   :      41859.82 KBytes
  max/ min on nodes  :      10711.92      10213.71


 parallel 3D FFT for wavefunctions:
    minimum data exchange during FFTs selected (reduces bandwidth)
 parallel 3D FFT for charge:
    minimum data exchange during FFTs selected (reduces bandwidth)


 total amount of memory used by VASP MPI-rank0   294764. kBytes
=======================================================================

   base      :      30000. kBytes
   nonlr-proj:      19022. kBytes
   fftplans  :      13377. kBytes
   grid      :      22491. kBytes
   one-center:        637. kBytes
   wavefun   :     209237. kBytes
 
     INWAV:  cpu time    0.0000: real time    0.0003
 Broyden mixing: mesh for mixing (old mesh)
   NGX = 61   NGY = 61   NGZ = 77
  (NGX  =180   NGY  =180   NGZ  =240)
  gives a total of 286517 points

 initial charge density was supplied:
 charge density of overlapping atoms calculated
 number of electron    1632.0000000 magnetization 
 keeping initial charge density in first step


--------------------------------------------------------------------------------------------------------


 Maximum index for non-local projection operator          601
 Maximum index for augmentation-charges          451 (set IRDMAX)


--------------------------------------------------------------------------------------------------------


 First call to EWALD:  gamma=   0.099
 Maximum number of real-space cells 3x 3x 2
 Maximum number of reciprocal cells 3x 3x 3

    FEWALD:  cpu time    0.0118: real time    0.0118


--------------------------------------- Iteration      1(   1)  ---------------------------------------


    POTLOK:  cpu time    0.1345: real time    0.1654
    SETDIJ:  cpu time    0.0125: real time    0.0169
     EDDAV:  cpu time   81.1306: real time   81.2059
       DOS:  cpu time    0.0017: real time    0.0017
    --------------------------------------------
      LOOP:  cpu time   81.2794: real time   81.3898

 eigenvalue-minimisations  :  9876
 total energy-change (2. order) : 0.9967897E+04  (-0.7156839E+05)
 number of electron    1632.0000000 magnetization 
 augmentation part     1632.0000000 magnetization 

 DIPCOR: dipole corrections for dipol
 direction  3 min pos   165,
 dipolmoment           0.000000      0.000000     -0.001425 electrons x Angstroem
 Tr[quadrupol]    -85836.981160

 energy correction for charged system         0.000000 eV
 dipol+quadrupol energy correction           -0.000000 eV
 added-field ion interaction         -0.021946 eV  (added to PSCEN)


 Free energy of the ion-electron system (eV)
  ---------------------------------------------------
  alpha Z        PSCENC =      3216.20362069
  Ewald energy   TEWEN  =    391017.26366643
  -Hartree energ DENC   =   -546621.98588553
  -exchange      EXHF   =         0.00000000
  -V(xc)+E(xc)   XCENC  =     -1376.21529169
  PAW double counting   =    145689.40956526  -139055.61213813
  entropy T*S    EENTRO =        -0.02486690
  eigenvalues    EBANDS =      6049.22941257
  atomic energy  EATOM  =    151049.62874275
  Solvation  Ediel_sol  =         0.00000000
  ---------------------------------------------------
  free energy    TOTEN  =      9967.89682546 eV

  energy without entropy =     9967.92169236  energy(sigma->0) =     9967.90925891


--------------------------------------------------------------------------------------------------------




--------------------------------------- Iteration      1(   2)  ---------------------------------------


     EDDAV:  cpu time   84.8227: real time   84.8587
       DOS:  cpu time    0.0017: real time    0.0017
    --------------------------------------------
      LOOP:  cpu time   84.8243: real time   84.8604

 eigenvalue-minimisations  : 10572
 total energy-change (2. order) :-0.1001833E+05  (-0.9469679E+04)
 number of electron    1632.0000000 magnetization 
 augmentation part     1632.0000000 magnetization 

 DIPCOR: dipole corrections for dipol
 direction  3 min pos   165,
 dipolmoment           0.000000      0.000000     -0.001425 electrons x Angstroem
 Tr[quadrupol]    -85836.981160

 energy correction for charged system         0.000000 eV
 dipol+quadrupol energy correction           -0.000000 eV
 added-field ion interaction         -0.021946 eV  (added to PSCEN)


 Free energy of the ion-electron system (eV)
  ---------------------------------------------------
  alpha Z        PSCENC =      3216.20362069
  Ewald energy   TEWEN  =    391017.26366643
  -Hartree energ DENC   =   -546621.98588553
  -exchange      EXHF   =         0.00000000
  -V(xc)+E(xc)   XCENC  =     -1376.21529169
  PAW double counting   =    145689.40956526  -139055.61213813
  entropy T*S    EENTRO =        -0.02574986
  eigenvalues    EBANDS =     -3969.10048051
  atomic energy  EATOM  =    151049.62874275
  Solvation  Ediel_sol  =         0.00000000
  ---------------------------------------------------
  free energy    TOTEN  =       -50.43395059 eV

  energy without entropy =      -50.40820073  energy(sigma->0) =      -50.42107566


--------------------------------------------------------------------------------------------------------




--------------------------------------- Iteration      1(   3)  ---------------------------------------


     EDDAV:  cpu time   90.8677: real time   91.2814
       DOS:  cpu time    0.0016: real time    0.0016
    --------------------------------------------
      LOOP:  cpu time   90.8694: real time   91.2830

 eigenvalue-minimisations  : 10932
 total energy-change (2. order) :-0.4667453E+03  (-0.4538288E+03)
 number of electron    1632.0000000 magnetization 
 augmentation part     1632.0000000 magnetization 

 DIPCOR: dipole corrections for dipol
 direction  3 min pos   165,
 dipolmoment           0.000000      0.000000     -0.001425 electrons x Angstroem
 Tr[quadrupol]    -85836.981160

 energy correction for charged system         0.000000 eV
 dipol+quadrupol energy correction           -0.000000 eV
 added-field ion interaction         -0.021946 eV  (added to PSCEN)


 Free energy of the ion-electron system (eV)
  ---------------------------------------------------
  alpha Z        PSCENC =      3216.20362069
  Ewald energy   TEWEN  =    391017.26366643
  -Hartree energ DENC   =   -546621.98588553
  -exchange      EXHF   =         0.00000000
  -V(xc)+E(xc)   XCENC  =     -1376.21529169
  PAW double counting   =    145689.40956526  -139055.61213813
  entropy T*S    EENTRO =        -0.02012088
  eigenvalues    EBANDS =     -4435.85143413
  atomic energy  EATOM  =    151049.62874275
  Solvation  Ediel_sol  =         0.00000000
  ---------------------------------------------------
  free energy    TOTEN  =      -517.17927523 eV

  energy without entropy =     -517.15915435  energy(sigma->0) =     -517.16921479


--------------------------------------------------------------------------------------------------------




--------------------------------------- Iteration      1(   4)  ---------------------------------------


     EDDAV:  cpu time   87.5839: real time   87.6195
       DOS:  cpu time    0.0016: real time    0.0016
    --------------------------------------------
      LOOP:  cpu time   87.5856: real time   87.6212

 eigenvalue-minimisations  : 11016
 total energy-change (2. order) :-0.1163131E+02  (-0.1116350E+02)
 number of electron    1632.0000000 magnetization 
 augmentation part     1632.0000000 magnetization 

 DIPCOR: dipole corrections for dipol
 direction  3 min pos   165,
 dipolmoment           0.000000      0.000000     -0.001425 electrons x Angstroem
 Tr[quadrupol]    -85836.981160

 energy correction for charged system         0.000000 eV
 dipol+quadrupol energy correction           -0.000000 eV
 added-field ion interaction         -0.021946 eV  (added to PSCEN)


 Free energy of the ion-electron system (eV)
  ---------------------------------------------------
  alpha Z        PSCENC =      3216.20362069
  Ewald energy   TEWEN  =    391017.26366643
  -Hartree energ DENC   =   -546621.98588553
  -exchange      EXHF   =         0.00000000
  -V(xc)+E(xc)   XCENC  =     -1376.21529169
  PAW double counting   =    145689.40956526  -139055.61213813
  entropy T*S    EENTRO =        -0.03336358
  eigenvalues    EBANDS =     -4447.46950334
  atomic energy  EATOM  =    151049.62874275
  Solvation  Ediel_sol  =         0.00000000
  ---------------------------------------------------
  free energy    TOTEN  =      -528.81058713 eV

  energy without entropy =     -528.77722355  energy(sigma->0) =     -528.79390534


--------------------------------------------------------------------------------------------------------




--------------------------------------- Iteration      1(   5)  ---------------------------------------


     EDDAV:  cpu time   90.4590: real time   90.4940
       DOS:  cpu time    0.0017: real time    0.0017
    --------------------------------------------
      LOOP:  cpu time   90.4606: real time   90.4956

 eigenvalue-minimisations  : 11484
 total energy-change (2. order) :-0.3502191E+00  (-0.3493953E+00)
 number of electron    1632.0000000 magnetization 
 augmentation part     1632.0000000 magnetization 

 DIPCOR: dipole corrections for dipol
 direction  3 min pos   165,
 dipolmoment           0.000000      0.000000     -0.001425 electrons x Angstroem
 Tr[quadrupol]    -85836.981160

 energy correction for charged system         0.000000 eV
 dipol+quadrupol energy correction           -0.000000 eV
 added-field ion interaction         -0.021946 eV  (added to PSCEN)


 Free energy of the ion-electron system (eV)
  ---------------------------------------------------
  alpha Z        PSCENC =      3216.20362069
  Ewald energy   TEWEN  =    391017.26366643
  -Hartree energ DENC   =   -546621.98588553
  -exchange      EXHF   =         0.00000000
  -V(xc)+E(xc)   XCENC  =     -1376.21529169
  PAW double counting   =    145689.40956526  -139055.61213813
  entropy T*S    EENTRO =        -0.03335447
  eigenvalues    EBANDS =     -4447.81973155
  atomic energy  EATOM  =    151049.62874275
  Solvation  Ediel_sol  =         0.00000000
  ---------------------------------------------------
  free energy    TOTEN  =      -529.16080624 eV

  energy without entropy =     -529.12745177  energy(sigma->0) =     -529.14412900


--------------------------------------------------------------------------------------------------------




--------------------------------------- Iteration      1(   6)  ---------------------------------------


     EDDAV:  cpu time  100.9295: real time  100.9788
       DOS:  cpu time    0.0016: real time    0.0016
    --------------------------------------------
      LOOP:  cpu time  100.9312: real time  100.9804

 eigenvalue-minimisations  : 13140
 total energy-change (2. order) :-0.1588680E-01  (-0.1587926E-01)
 number of electron    1632.0000000 magnetization 
 augmentation part     1632.0000000 magnetization 

 DIPCOR: dipole corrections for dipol
 direction  3 min pos   165,
 dipolmoment           0.000000      0.000000     -0.001425 electrons x Angstroem
 Tr[quadrupol]    -85836.981160

 energy correction for charged system         0.000000 eV
 dipol+quadrupol energy correction           -0.000000 eV
 added-field ion interaction         -0.021946 eV  (added to PSCEN)


 Free energy of the ion-electron system (eV)
  ---------------------------------------------------
  alpha Z        PSCENC =      3216.20362069
  Ewald energy   TEWEN  =    391017.26366643
  -Hartree energ DENC   =   -546621.98588553
  -exchange      EXHF   =         0.00000000
  -V(xc)+E(xc)   XCENC  =     -1376.21529169
  PAW double counting   =    145689.40956526  -139055.61213813
  entropy T*S    EENTRO =        -0.03334968
  eigenvalues    EBANDS =     -4447.83562315
  atomic energy  EATOM  =    151049.62874275
  Solvation  Ediel_sol  =         0.00000000
  ---------------------------------------------------
  free energy    TOTEN  =      -529.17669304 eV

  energy without entropy =     -529.14334336  energy(sigma->0) =     -529.16001820


--------------------------------------------------------------------------------------------------------




--------------------------------------- Iteration      1(   7)  ---------------------------------------


     EDDAV:  cpu time  102.5597: real time  102.6551
       DOS:  cpu time    0.0016: real time    0.0016
    CHARGE:  cpu time    3.7695: real time    3.7711
    MIXING:  cpu time    0.0052: real time    0.0060
    --------------------------------------------
      LOOP:  cpu time  106.3361: real time  106.4338

 eigenvalue-minimisations  : 12744
 total energy-change (2. order) :-0.5444285E-03  (-0.5443650E-03)
 number of electron    1632.0000772 magnetization 
 augmentation part      735.5323599 magnetization 

 DIPCOR: dipole corrections for dipol
 direction  3 min pos   165,
 dipolmoment           0.000000      0.000000     -0.001425 electrons x Angstroem
 Tr[quadrupol]    -85836.981160

 energy correction for charged system         0.000000 eV
 dipol+quadrupol energy correction           -0.000000 eV
 added-field ion interaction         -0.021946 eV  (added to PSCEN)


 Broyden mixing:
  rms(total) = 0.58462E+01    rms(broyden)= 0.58455E+01
  rms(prec ) = 0.61723E+01
  weight for this iteration     100.00

 Free energy of the ion-electron system (eV)
  ---------------------------------------------------
  alpha Z        PSCENC =      3216.20362069
  Ewald energy   TEWEN  =    391017.26366643
  -Hartree energ DENC   =   -546621.98588553
  -exchange      EXHF   =         0.00000000
  -V(xc)+E(xc)   XCENC  =     -1376.21529169
  PAW double counting   =    145689.40956526  -139055.61213813
  entropy T*S    EENTRO =        -0.03334961
  eigenvalues    EBANDS =     -4447.83616764
  atomic energy  EATOM  =    151049.62874275
  Solvation  Ediel_sol  =         0.00000000
  ---------------------------------------------------
  free energy    TOTEN  =      -529.17723747 eV

  energy without entropy =     -529.14388786  energy(sigma->0) =     -529.16056267


--------------------------------------------------------------------------------------------------------




--------------------------------------- Iteration      1(   8)  ---------------------------------------


    POTLOK:  cpu time    0.1236: real time    0.1237
    SETDIJ:  cpu time    0.0122: real time    0.0122
    EDDIAG:  cpu time   14.6813: real time   14.6924
  RMM-DIIS:  cpu time   34.6414: real time   34.6540
    ORTHCH:  cpu time    4.0901: real time    4.0915
       DOS:  cpu time    0.0016: real time    0.0016
    CHARGE:  cpu time    3.7223: real time    3.7236
    MIXING:  cpu time    0.0056: real time    0.0077
    --------------------------------------------
      LOOP:  cpu time   57.2780: real time   57.3068

 eigenvalue-minimisations  :  9867
 total energy-change (2. order) : 0.3513208E+02  (-0.1439785E+02)
 number of electron    1632.0000802 magnetization 
 augmentation part      757.1090183 magnetization 

 DIPCOR: dipole corrections for dipol
 direction  3 min pos   170,
 dipolmoment           0.000000      0.000000      2.381164 electrons x Angstroem
 Tr[quadrupol]    -85835.198816

 energy correction for charged system         0.000000 eV
 dipol+quadrupol energy correction           -0.090069 eV
 added-field ion interaction         93.466781 eV  (added to PSCEN)


 Broyden mixing:
  rms(total) = 0.40201E+01    rms(broyden)= 0.40189E+01
  rms(prec ) = 0.44004E+01
  weight for this iteration     100.00

 eigenvalues of (default mixing * dielectric matrix)
  average eigenvalue GAMMA=   1.0065
  1.0065

 Free energy of the ion-electron system (eV)
  ---------------------------------------------------
  alpha Z        PSCENC =      3309.60227893
  Ewald energy   TEWEN  =    391017.26366643
  -Hartree energ DENC   =   -545343.63839559
  -exchange      EXHF   =         0.00000000
  -V(xc)+E(xc)   XCENC  =     -1416.53121057
  PAW double counting   =    152019.84081399  -145515.18665828
  entropy T*S    EENTRO =        -0.02173493
  eigenvalues    EBANDS =     -5615.00266231
  atomic energy  EATOM  =    151049.62874275
  Solvation  Ediel_sol  =         0.00000000
  ---------------------------------------------------
  free energy    TOTEN  =      -494.04515956 eV

  energy without entropy =     -494.02342463  energy(sigma->0) =     -494.03429210


--------------------------------------------------------------------------------------------------------




--------------------------------------- Iteration      1(   9)  ---------------------------------------


    POTLOK:  cpu time    0.1223: real time    0.1226
    SETDIJ:  cpu time    0.0122: real time    0.0122
    EDDIAG:  cpu time   14.6192: real time   14.6332
  RMM-DIIS:  cpu time   34.0901: real time   34.1118
    ORTHCH:  cpu time    4.1441: real time    4.1461
       DOS:  cpu time    0.0016: real time    0.0016
    CHARGE:  cpu time    3.7093: real time    3.7112
    MIXING:  cpu time    0.0054: real time    0.0054
    --------------------------------------------
      LOOP:  cpu time   56.7041: real time   56.7441

 eigenvalue-minimisations  :  9840
 total energy-change (2. order) :-0.2666549E+02  (-0.3381973E+01)
 number of electron    1632.0000778 magnetization 
 augmentation part      756.5978648 magnetization 

 DIPCOR: dipole corrections for dipol
 direction  3 min pos   168,
 dipolmoment           0.000000      0.000000     -5.184989 electrons x Angstroem
 Tr[quadrupol]    -85839.671434

 energy correction for charged system         0.000000 eV
 dipol+quadrupol energy correction           -0.427062 eV
 added-field ion interaction       -154.049715 eV  (added to PSCEN)


 Broyden mixing:
  rms(total) = 0.29384E+01    rms(broyden)= 0.29380E+01
  rms(prec ) = 0.45054E+01
  weight for this iteration     100.00

 eigenvalues of (default mixing * dielectric matrix)
  average eigenvalue GAMMA=   1.1091
  1.5735  0.6448

 Free energy of the ion-electron system (eV)
  ---------------------------------------------------
  alpha Z        PSCENC =      3061.74878911
  Ewald energy   TEWEN  =    391017.26366643
  -Hartree energ DENC   =   -545535.95049479
  -exchange      EXHF   =         0.00000000
  -V(xc)+E(xc)   XCENC  =     -1422.41629556
  PAW double counting   =    155771.57912750  -149342.31746686
  entropy T*S    EENTRO =        -0.01213453
  eigenvalues    EBANDS =     -5120.23458781
  atomic energy  EATOM  =    151049.62874275
  Solvation  Ediel_sol  =         0.00000000
  ---------------------------------------------------
  free energy    TOTEN  =      -520.71065377 eV

  energy without entropy =     -520.69851923  energy(sigma->0) =     -520.70458650


--------------------------------------------------------------------------------------------------------




--------------------------------------- Iteration      1(  10)  ---------------------------------------


    POTLOK:  cpu time    0.1206: real time    0.1211
    SETDIJ:  cpu time    0.0121: real time    0.0121
    EDDIAG:  cpu time   14.6437: real time   14.6508
  RMM-DIIS:  cpu time   34.2682: real time   34.2922
    ORTHCH:  cpu time    4.1025: real time    4.1044
       DOS:  cpu time    0.0017: real time    0.0017
    CHARGE:  cpu time    3.7423: real time    3.7446
    MIXING:  cpu time    0.0054: real time    0.0054
    --------------------------------------------
      LOOP:  cpu time   56.8964: real time   56.9322

 eigenvalue-minimisations  :  9859
 total energy-change (2. order) : 0.2221851E+02  (-0.3381318E+01)
 number of electron    1632.0000796 magnetization 
 augmentation part      758.6626513 magnetization 

 DIPCOR: dipole corrections for dipol
 direction  3 min pos   172,
 dipolmoment           0.000000      0.000000      3.064554 electrons x Angstroem
 Tr[quadrupol]    -85852.758542

 energy correction for charged system         0.000000 eV
 dipol+quadrupol energy correction           -0.149187 eV
 added-field ion interaction        149.533120 eV  (added to PSCEN)


 Broyden mixing:
  rms(total) = 0.20607E+01    rms(broyden)= 0.20607E+01
  rms(prec ) = 0.29980E+01
  weight for this iteration     100.00

 eigenvalues of (default mixing * dielectric matrix)
  average eigenvalue GAMMA=   1.1528
  2.3119  0.8765  0.2698

 Free energy of the ion-electron system (eV)
  ---------------------------------------------------
  alpha Z        PSCENC =      3365.60949961
  Ewald energy   TEWEN  =    391017.26366643
  -Hartree energ DENC   =   -545447.57655743
  -exchange      EXHF   =         0.00000000
  -V(xc)+E(xc)   XCENC  =     -1425.72430190
  PAW double counting   =    158111.13711695  -151730.75761929
  entropy T*S    EENTRO =        -0.02215364
  eigenvalues    EBANDS =     -5438.05053779
  atomic energy  EATOM  =    151049.62874275
  Solvation  Ediel_sol  =         0.00000000
  ---------------------------------------------------
  free energy    TOTEN  =      -498.49214434 eV

  energy without entropy =     -498.46999069  energy(sigma->0) =     -498.48106751


--------------------------------------------------------------------------------------------------------




--------------------------------------- Iteration      1(  11)  ---------------------------------------


    POTLOK:  cpu time    0.1229: real time    0.1236
    SETDIJ:  cpu time    0.0121: real time    0.0121
    EDDIAG:  cpu time   14.6620: real time   14.6698
  RMM-DIIS:  cpu time   34.3089: real time   34.3325
    ORTHCH:  cpu time    4.1117: real time    4.1151
       DOS:  cpu time    0.0017: real time    0.0017
    CHARGE:  cpu time    3.7231: real time    3.7250
    MIXING:  cpu time    0.0057: real time    0.0057
    --------------------------------------------
      LOOP:  cpu time   56.9481: real time   56.9856

 eigenvalue-minimisations  :  9865
 total energy-change (2. order) : 0.1412446E+02  (-0.7245312E+00)
 number of electron    1632.0000794 magnetization 
 augmentation part      760.1548981 magnetization 

 DIPCOR: dipole corrections for dipol
 direction  3 min pos   172,
 dipolmoment           0.000000      0.000000      0.062495 electrons x Angstroem
 Tr[quadrupol]    -85842.906857

 energy correction for charged system         0.000000 eV
 dipol+quadrupol energy correction           -0.000062 eV
 added-field ion interaction          3.049410 eV  (added to PSCEN)


 Broyden mixing:
  rms(total) = 0.59251E+00    rms(broyden)= 0.59246E+00
  rms(prec ) = 0.65970E+00
  weight for this iteration     100.00

 eigenvalues of (default mixing * dielectric matrix)
  average eigenvalue GAMMA=   1.1404
  2.5086  1.1159  0.6620  0.2750

 Free energy of the ion-electron system (eV)
  ---------------------------------------------------
  alpha Z        PSCENC =      3219.27491456
  Ewald energy   TEWEN  =    391017.26366643
  -Hartree energ DENC   =   -545252.44798621
  -exchange      EXHF   =         0.00000000
  -V(xc)+E(xc)   XCENC  =     -1428.58221533
  PAW double counting   =    161894.16110280  -155590.00329480
  entropy T*S    EENTRO =        -0.02965559
  eigenvalues    EBANDS =     -5393.63295698
  atomic energy  EATOM  =    151049.62874275
  Solvation  Ediel_sol  =         0.00000000
  ---------------------------------------------------
  free energy    TOTEN  =      -484.36768237 eV

  energy without entropy =     -484.33802678  energy(sigma->0) =     -484.35285458


--------------------------------------------------------------------------------------------------------




--------------------------------------- Iteration      1(  12)  ---------------------------------------


    POTLOK:  cpu time    0.1222: real time    0.1229
    SETDIJ:  cpu time    0.0121: real time    0.0121
    EDDIAG:  cpu time   14.7433: real time   14.7516
  RMM-DIIS:  cpu time   34.6514: real time   34.6728
    ORTHCH:  cpu time    4.6483: real time    4.6513
       DOS:  cpu time    0.0108: real time    0.0108
    CHARGE:  cpu time    3.5819: real time    3.7713
    MIXING:  cpu time    0.0287: real time    0.0287
    --------------------------------------------
      LOOP:  cpu time   57.7987: real time   58.0215

 eigenvalue-minimisations  :  9882
 total energy-change (2. order) : 0.4187164E+00  (-0.9639824E-01)
 number of electron    1632.0000795 magnetization 
 augmentation part      759.0439334 magnetization 

 DIPCOR: dipole corrections for dipol
 direction  3 min pos   172,
 dipolmoment           0.000000      0.000000      0.109004 electrons x Angstroem
 Tr[quadrupol]    -85847.773855

 energy correction for charged system         0.000000 eV
 dipol+quadrupol energy correction           -0.000189 eV
 added-field ion interaction          5.318796 eV  (added to PSCEN)


 Broyden mixing:
  rms(total) = 0.17595E+00    rms(broyden)= 0.17594E+00
  rms(prec ) = 0.22066E+00
  weight for this iteration     100.00

 eigenvalues of (default mixing * dielectric matrix)
  average eigenvalue GAMMA=   1.0632
  2.4491  1.1536  0.2735  0.7198  0.7198

 Free energy of the ion-electron system (eV)
  ---------------------------------------------------
  alpha Z        PSCENC =      3221.54417372
  Ewald energy   TEWEN  =    391017.26366643
  -Hartree energ DENC   =   -545414.95793647
  -exchange      EXHF   =         0.00000000
  -V(xc)+E(xc)   XCENC  =     -1426.89000012
  PAW double counting   =    162927.57112387  -156638.82223463
  entropy T*S    EENTRO =        -0.02598994
  eigenvalues    EBANDS =     -5219.26051161
  atomic energy  EATOM  =    151049.62874275
[...]
 total energy-change (2. order) :-0.5854643E-05  (-0.7479439E-05)
 number of electron    1632.0000824 magnetization 
 augmentation part      758.8668831 magnetization 

 DIPCOR: dipole corrections for dipol
 direction  3 min pos   166,
 dipolmoment           0.000000      0.000000     -0.169536 electrons x Angstroem
 Tr[quadrupol]    -85899.108510

 energy correction for charged system         0.000000 eV
 dipol+quadrupol energy correction           -0.000457 eV
 added-field ion interaction         -3.339042 eV  (added to PSCEN)


 eigenvalues of (default mixing * dielectric matrix)
  average eigenvalue GAMMA=   1.2631
  1.2631

  free energy =  -0.484027962451E+03  energy without entropy=  -0.484007129632E+03


--------------------------------------------------------------------------------------------------------




--------------------------------------- Iteration    101(   3)  ---------------------------------------


    POTLOK:  cpu time    0.1239: real time    0.1246
    SETDIJ:  cpu time    0.0125: real time    0.0125
    EDDIAG:  cpu time   14.6750: real time   14.6807
  RMM-DIIS:  cpu time   20.0908: real time   20.0986
    ORTHCH:  cpu time    4.0777: real time    4.0790
       DOS:  cpu time    0.0016: real time    0.0016
    CHARGE:  cpu time    3.8161: real time    3.8175
    MIXING:  cpu time    0.0053: real time    0.0053
    --------------------------------------------
      LOOP:  cpu time   42.8029: real time   42.8197

 eigenvalue-minimisations  :  5339
 total energy-change (2. order) : 0.3744208E-06  (-0.5135580E-06)
 number of electron    1632.0000824 magnetization 
 augmentation part      758.8668918 magnetization 

 DIPCOR: dipole corrections for dipol
 direction  3 min pos   166,
 dipolmoment           0.000000      0.000000     -0.169873 electrons x Angstroem
 Tr[quadrupol]    -85899.107946

 energy correction for charged system         0.000000 eV
 dipol+quadrupol energy correction           -0.000458 eV
 added-field ion interaction         -3.345674 eV  (added to PSCEN)


 eigenvalues of (default mixing * dielectric matrix)
  average eigenvalue GAMMA=   1.5106
  0.9175  2.1037

  free energy =  -0.484027962077E+03  energy without entropy=  -0.484007131751E+03


--------------------------------------------------------------------------------------------------------




--------------------------------------- Iteration    101(   4)  ---------------------------------------


    POTLOK:  cpu time    0.1226: real time    0.1234
    SETDIJ:  cpu time    0.0124: real time    0.0124
    EDDIAG:  cpu time   14.7177: real time   14.7237
  RMM-DIIS:  cpu time   19.9391: real time   19.9472
    ORTHCH:  cpu time    4.1705: real time    4.1719
       DOS:  cpu time    0.0016: real time    0.0016
    CHARGE:  cpu time    3.8191: real time    3.8207
    MIXING:  cpu time    0.0060: real time    0.0060
    --------------------------------------------
      LOOP:  cpu time   42.7890: real time   42.8068

 eigenvalue-minimisations  :  5323
 total energy-change (2. order) :-0.1267385E-05  (-0.1992451E-06)
 number of electron    1632.0000824 magnetization 
 augmentation part      758.8668985 magnetization 

 DIPCOR: dipole corrections for dipol
 direction  3 min pos   166,
 dipolmoment           0.000000      0.000000     -0.168543 electrons x Angstroem
 Tr[quadrupol]    -85899.109136

 energy correction for charged system         0.000000 eV
 dipol+quadrupol energy correction           -0.000451 eV
 added-field ion interaction         -3.319476 eV  (added to PSCEN)


 eigenvalues of (default mixing * dielectric matrix)
  average eigenvalue GAMMA=   1.1747
  2.2300  0.9589  0.3351

  free energy =  -0.484027963344E+03  energy without entropy=  -0.484007127469E+03


--------------------------------------------------------------------------------------------------------




--------------------------------------- Iteration    101(   5)  ---------------------------------------


    POTLOK:  cpu time    0.1252: real time    0.1266
    SETDIJ:  cpu time    0.0123: real time    0.0123
    EDDIAG:  cpu time   14.6395: real time   14.6468
  RMM-DIIS:  cpu time   13.8793: real time   13.8851
    ORTHCH:  cpu time    4.0834: real time    4.0847
       DOS:  cpu time    0.0016: real time    0.0016
    --------------------------------------------
      LOOP:  cpu time   32.7412: real time   32.7570

 eigenvalue-minimisations  :  1748
 total energy-change (2. order) : 0.1356733E-05  (-0.2801620E-07)
 number of electron    1632.0000824 magnetization 
 augmentation part      758.8668985 magnetization 

 DIPCOR: dipole corrections for dipol
 direction  3 min pos   166,
 dipolmoment           0.000000      0.000000     -0.169637 electrons x Angstroem
 Tr[quadrupol]    -85899.108032

 energy correction for charged system         0.000000 eV
 dipol+quadrupol energy correction           -0.000457 eV
 added-field ion interaction         -3.341035 eV  (added to PSCEN)


  free energy =  -0.484027961987E+03  energy without entropy=  -0.484007130714E+03


--------------------------------------------------------------------------------------------------------




------------------------ aborting loop because EDIFF is reached ----------------------------------------


    CHARGE:  cpu time    3.8161: real time    3.8184
    FORLOC:  cpu time    0.1169: real time    0.1169
    FORNL :  cpu time   14.1434: real time   14.1486
    STRESS:  cpu time   42.5114: real time   42.5279
    FORCOR:  cpu time    0.2174: real time    0.2174
    FORHAR:  cpu time    0.1404: real time    0.1404
    MIXING:  cpu time    0.0051: real time    0.0051
    OFIELD:  cpu time    0.0001: real time    0.0001

  Number of pair interactions contributing to vdW energy:  618043
  Edisp (eV):  -10.60358
    FORVDW:  cpu time    0.0823: real time    0.0823

  FORCE on cell =-STRESS in cart. coord.  units (eV):
  Direction    XX          YY          ZZ          XY          YZ          ZX
  --------------------------------------------------------------------------------------
  Alpha Z  3216.22557  3216.22557  3216.22557
  Ewald  480403.23568479903.33511************  -337.48920   -44.43596   124.41737
  Hartree521980.52109521550.98713************  -280.79068   -32.66950    81.94247
  E(xc)   -8535.78240 -8535.85618 -8563.13954    -0.07854    -0.06221     0.19853
  Local  ************************************   621.01292    77.96485  -200.69683
  n-local -1305.71951 -1306.75268 -1350.86993    -1.06083     0.11593     0.20160
  augment 13238.24388 13238.11524 13291.17842    -0.09173    -0.05014    -0.12306
  Kinetic 20313.59955 20309.38778 20548.09249    -1.47038    -0.72309    -6.05251
  Fock        0.00000     0.00000     0.00000     0.00000     0.00000     0.00000
  vdW       -15.06744   -14.89419   -11.34359     0.09425    -0.07341     0.00090
  -------------------------------------------------------------------------------------
  Total      10.05356    10.21199     9.98451     0.12581     0.06647    -0.11151
  in kB       2.79777     2.84186     2.77855     0.03501     0.01850    -0.03103
  external pressure =        2.81 kB  Pullay stress =        0.00 kB



--------------------------------------------------------------------------------------------------------



  FREE ENERGIE OF THE ION-ELECTRON SYSTEM (eV)
  ---------------------------------------------------
  free  energy   TOTEN  =      -494.63154589 eV

  energy  without entropy=     -494.61071461  energy(sigma->0) =     -494.62113025
 
 d Force = 0.1451399E-04[-0.450E-06, 0.295E-04]  d Energy = 0.3672799E-04-0.222E-04
 d Force = 0.2460502E+01[ 0.246E+01, 0.246E+01]  d Ewald  = 0.2460501E+01 0.718E-06


--------------------------------------------------------------------------------------------------------


    POTLOK:  cpu time    0.1376: real time    0.1379


--------------------------------------------------------------------------------------------------------




--------------------------------------------------------------------------------------------------------


    WAVPRE:  cpu time    0.1057: real time    0.1074
    FEWALD:  cpu time    0.0051: real time    0.0051

 real space projection operators:
  total allocation   :      41919.14 KBytes
  max/ min on nodes  :      10728.70      10231.06

    ORTHCH:  cpu time    8.8255: real time    8.8288
     LOOP+:  cpu time  323.7570: real time  323.8957


--------------------------------------- Iteration    102(   1)  ---------------------------------------


    POTLOK:  cpu time    0.1250: real time    0.1254
    SETDIJ:  cpu time    0.0122: real time    0.0122
     EDDAV:  cpu time   82.2375: real time   82.2669
       DOS:  cpu time    0.0014: real time    0.0014
    CHARGE:  cpu time    4.0391: real time    4.0404
    MIXING:  cpu time    0.0244: real time    0.0244
    --------------------------------------------
      LOOP:  cpu time   86.4397: real time   86.4708

 eigenvalue-minimisations  :  9840
 total energy-change (2. order) :-0.1680038E-03  (-0.1656438E-02)
 number of electron    1632.0000826 magnetization 
 augmentation part      758.8669480 magnetization 

 DIPCOR: dipole corrections for dipol
 direction  3 min pos   166,
 dipolmoment           0.000000      0.000000     -0.169506 electrons x Angstroem
 Tr[quadrupol]    -85898.878789

 energy correction for charged system         0.000000 eV
 dipol+quadrupol energy correction           -0.000456 eV
 added-field ion interaction         -3.338413 eV  (added to PSCEN)


  free energy =  -0.484028131348E+03  energy without entropy=  -0.484007302706E+03


--------------------------------------------------------------------------------------------------------




--------------------------------------- Iteration    102(   2)  ---------------------------------------


    POTLOK:  cpu time    0.2003: real time    0.2007
    SETDIJ:  cpu time    0.0344: real time    0.0344
    EDDIAG:  cpu time   15.2073: real time   15.2131
  RMM-DIIS:  cpu time   33.4500: real time   33.4625
    ORTHCH:  cpu time    4.0743: real time    4.0758
       DOS:  cpu time    0.0016: real time    0.0016
    CHARGE:  cpu time    3.8188: real time    3.8205
    MIXING:  cpu time    0.0049: real time    0.0049
    --------------------------------------------
      LOOP:  cpu time   56.7916: real time   56.8136

 eigenvalue-minimisations  :  9479
 total energy-change (2. order) :-0.1290205E-04  (-0.1641485E-04)
 number of electron    1632.0000826 magnetization 
 augmentation part      758.8669167 magnetization 

 DIPCOR: dipole corrections for dipol
 direction  3 min pos   166,
 dipolmoment           0.000000      0.000000     -0.169319 electrons x Angstroem
 Tr[quadrupol]    -85898.876946

 energy correction for charged system         0.000000 eV
 dipol+quadrupol energy correction           -0.000455 eV
 added-field ion interaction         -3.334727 eV  (added to PSCEN)


 eigenvalues of (default mixing * dielectric matrix)
  average eigenvalue GAMMA=   1.2313
  1.2313

  free energy =  -0.484028144250E+03  energy without entropy=  -0.484007312830E+03


--------------------------------------------------------------------------------------------------------




--------------------------------------- Iteration    102(   3)  ---------------------------------------


    POTLOK:  cpu time    0.1234: real time    0.1247
    SETDIJ:  cpu time    0.0123: real time    0.0123
    EDDIAG:  cpu time   14.6448: real time   14.6505
  RMM-DIIS:  cpu time   20.3863: real time   20.3937
    ORTHCH:  cpu time    4.0832: real time    4.0845
       DOS:  cpu time    0.0017: real time    0.0017
    CHARGE:  cpu time    3.8158: real time    3.8174
    MIXING:  cpu time    0.0056: real time    0.0056
    --------------------------------------------
      LOOP:  cpu time   43.0731: real time   43.0905

 eigenvalue-minimisations  :  5451
 total energy-change (2. order) : 0.1496839E-05  (-0.7742800E-06)
 number of electron    1632.0000826 magnetization 
 augmentation part      758.8669131 magnetization 

 DIPCOR: dipole corrections for dipol
 direction  3 min pos   166,
 dipolmoment           0.000000      0.000000     -0.169657 electrons x Angstroem
 Tr[quadrupol]    -85898.876010

 energy correction for charged system         0.000000 eV
 dipol+quadrupol energy correction           -0.000457 eV
 added-field ion interaction         -3.341385 eV  (added to PSCEN)


 eigenvalues of (default mixing * dielectric matrix)
  average eigenvalue GAMMA=   1.5407
  0.9520  2.1293

  free energy =  -0.484028142753E+03  energy without entropy=  -0.484007314466E+03


--------------------------------------------------------------------------------------------------------




--------------------------------------- Iteration    102(   4)  ---------------------------------------


    POTLOK:  cpu time    0.1232: real time    0.1234
    SETDIJ:  cpu time    0.0129: real time    0.0129
    EDDIAG:  cpu time   14.7285: real time   14.7341
  RMM-DIIS:  cpu time   20.2563: real time   20.2637
    ORTHCH:  cpu time    4.0889: real time    4.0906
       DOS:  cpu time    0.0016: real time    0.0016
    CHARGE:  cpu time    3.8212: real time    3.8227
    MIXING:  cpu time    0.0052: real time    0.0052
    --------------------------------------------
      LOOP:  cpu time   43.0379: real time   43.0543

 eigenvalue-minimisations  :  5437
 total energy-change (2. order) :-0.2132845E-05  (-0.3352799E-06)
 number of electron    1632.0000826 magnetization 
 augmentation part      758.8669382 magnetization 

 DIPCOR: dipole corrections for dipol
 direction  3 min pos   166,
 dipolmoment           0.000000      0.000000     -0.167975 electrons x Angstroem
 Tr[quadrupol]    -85898.877126

 energy correction for charged system         0.000000 eV
 dipol+quadrupol energy correction           -0.000448 eV
 added-field ion interaction         -3.308258 eV  (added to PSCEN)


 eigenvalues of (default mixing * dielectric matrix)
  average eigenvalue GAMMA=   1.1869
  2.2221  0.9582  0.3805

  free energy =  -0.484028144886E+03  energy without entropy=  -0.484007309789E+03


--------------------------------------------------------------------------------------------------------




--------------------------------------- Iteration    102(   5)  ---------------------------------------


    POTLOK:  cpu time    0.1231: real time    0.1244
    SETDIJ:  cpu time    0.0123: real time    0.0123
    EDDIAG:  cpu time   14.6849: real time   14.6905
  RMM-DIIS:  cpu time   16.9145: real time   16.9214
    ORTHCH:  cpu time    4.0836: real time    4.0849
       DOS:  cpu time    0.0017: real time    0.0017
    --------------------------------------------
      LOOP:  cpu time   35.8201: real time   35.8351

 eigenvalue-minimisations  :  3477
 total energy-change (2. order) : 0.2266839E-05  (-0.9529908E-07)
 number of electron    1632.0000826 magnetization 
 augmentation part      758.8669382 magnetization 

 DIPCOR: dipole corrections for dipol
 direction  3 min pos   166,
 dipolmoment           0.000000      0.000000     -0.169426 electrons x Angstroem
 Tr[quadrupol]    -85898.875588

 energy correction for charged system         0.000000 eV
 dipol+quadrupol energy correction           -0.000456 eV
 added-field ion interaction         -3.336838 eV  (added to PSCEN)


  free energy =  -0.484028142619E+03  energy without entropy=  -0.484007313630E+03


--------------------------------------------------------------------------------------------------------




------------------------ aborting loop because EDIFF is reached ----------------------------------------


    CHARGE:  cpu time    3.8245: real time    3.8260
    FORLOC:  cpu time    0.1167: real time    0.1167
    FORNL :  cpu time   14.2116: real time   14.2167
    STRESS:  cpu time   42.5722: real time   42.5879
    FORCOR:  cpu time    0.2187: real time    0.2187
    FORHAR:  cpu time    0.1405: real time    0.1405
    MIXING:  cpu time    0.0050: real time    0.0051
    OFIELD:  cpu time    0.0001: real time    0.0001

  Number of pair interactions contributing to vdW energy:  618044
  Edisp (eV):  -10.60350
    FORVDW:  cpu time    0.0822: real time    0.0822

  FORCE on cell =-STRESS in cart. coord.  units (eV):
  Direction    XX          YY          ZZ          XY          YZ          ZX
  --------------------------------------------------------------------------------------
  Alpha Z  3216.22557  3216.22557  3216.22557
  Ewald  480400.54214479900.65491************  -337.38037   -44.48169   124.55405
  Hartree521977.72226521548.27898************  -280.73727   -32.69086    82.02134
  E(xc)   -8535.78212 -8535.85593 -8563.13961    -0.07827    -0.06238     0.19890
  Local  ************************************   620.85316    78.02295  -200.90929
  n-local -1305.73564 -1306.76400 -1350.88092    -1.06754     0.12172     0.20361
  augment 13238.24298 13238.11480 13291.17938    -0.09192    -0.04968    -0.12296
  Kinetic 20313.60929 20309.38794 20548.08868    -1.48160    -0.71152    -6.06259
  Fock        0.00000     0.00000     0.00000     0.00000     0.00000     0.00000
  vdW       -15.06755   -14.89423   -11.34400     0.09421    -0.07348     0.00093
  -------------------------------------------------------------------------------------
  Total      10.06931    10.18604     9.96886     0.11039     0.07506    -0.11600
  in kB       2.80215     2.83464     2.77420     0.03072     0.02089    -0.03228
  external pressure =        2.80 kB  Pullay stress =        0.00 kB



--------------------------------------------------------------------------------------------------------



  FREE ENERGIE OF THE ION-ELECTRON SYSTEM (eV)
  ---------------------------------------------------
  free  energy   TOTEN  =      -494.63164061 eV

  energy  without entropy=     -494.61081163  energy(sigma->0) =     -494.62122612
 
 d Force = 0.6898627E-04[ 0.409E-04, 0.970E-04]  d Energy = 0.9472634E-04-0.257E-04
 d Force = 0.2728151E+01[ 0.273E+01, 0.273E+01]  d Ewald  = 0.2728150E+01 0.151E-05


--------------------------------------------------------------------------------------------------------


    POTLOK:  cpu time    0.1373: real time    0.1373


--------------------------------------------------------------------------------------------------------


 Conjugate gradient step on ions:
 trial-energy change:   -0.000095  1 .order   -0.000069   -0.000097   -0.000041
  (g-gl).g = 0.654E-04      g.g   = 0.717E-04  gl.gl    = 0.929E-04
 g(Force)  = 0.717E-04   g(Stress)= 0.000E+00 ortho     =-0.559E-06
 gamma     =   0.70327
 trial     =   1.36186
 opt step  =   2.35510  (harmonic =   2.35510) maximal distance =0.00142603
 next E    =  -494.631630   (d E  =  -0.00008)


--------------------------------------------------------------------------------------------------------


  
 reached required accuracy - stopping structural energy minimisation
     LOOP+:  cpu time  326.5011: real time  326.6293
    4ORBIT:  cpu time    0.0000: real time    0.0000

 total amount of memory used by VASP MPI-rank0   294764. kBytes
=======================================================================

   base      :      30000. kBytes
   nonlr-proj:      19022. kBytes
   fftplans  :      13377. kBytes
   grid      :      22491. kBytes
   one-center:        637. kBytes
   wavefun   :     209237. kBytes
 
  
  
 General timing and accounting informations for this job:
 ========================================================
  
                  Total CPU time used (sec):    39425.637
                            User time (sec):    38020.662
                          System time (sec):     1404.975
                         Elapsed time (sec):    39465.964
  
                   Maximum memory used (kb):      491532.
                   Average memory used (kb):           0.
  
                          Minor page faults:       229844
                          Major page faults:            0
                 Voluntary context switches:        10719
