 vasp.5.4.4.18Apr17-6-g9f103f2a35 (build Jun 30 2017 19:19:18) complex          
  
 executed on         MareNostrum4 date 2022.04.19  22:26:08
 running on   48 total cores
 distrk:  each k-point on   48 cores,    1 groups
 distr:  one band on NCORES_PER_BAND=   1 cores,   48 groups


--------------------------------------------------------------------------------------------------------


 INCAR:
 POTCAR:    PAW_PBE Ni 02Aug2007                  
 POTCAR:    PAW_PBE C 08Apr2002                   
 POTCAR:    PAW_PBE H 15Jun2001                   
 POTCAR:    PAW_PBE O 08Apr2002                   

 ----------------------------------------------------------------------------- 
|                                                                             |
|           W    W    AA    RRRRR   N    N  II  N    N   GGGG   !!!           |
|           W    W   A  A   R    R  NN   N  II  NN   N  G    G  !!!           |
|           W    W  A    A  R    R  N N  N  II  N N  N  G       !!!           |
|           W WW W  AAAAAA  RRRRR   N  N N  II  N  N N  G  GGG   !            |
|           WW  WW  A    A  R   R   N   NN  II  N   NN  G    G                |
|           W    W  A    A  R    R  N    N  II  N    N   GGGG   !!!           |
|                                                                             |
|      For optimal performance we recommend to set                            |
|        NCORE= 4 - approx SQRT( number of cores)                             |
|      NCORE specifies how many cores store one orbital (NPAR=cpu/NCORE).     |
|      This setting can  greatly improve the performance of VASP for DFT.     |
|      The default,   NCORE=1            might be grossly inefficient         |
|      on modern multi-core architectures or massively parallel machines.     |
|      Do your own testing !!!!                                               |
|      Unfortunately you need to use the default for GW and RPA calculations. |
|      (for HF NCORE is supported but not extensively tested yet)             |
|                                                                             |
 ----------------------------------------------------------------------------- 

 POTCAR:    PAW_PBE Ni 02Aug2007                  
  local pseudopotential read in
  partial core-charges read in
  partial kinetic energy density read in
  atomic valenz-charges read in
  non local Contribution for L=           2  read in
    real space projection operators read in
  non local Contribution for L=           2  read in
    real space projection operators read in
  non local Contribution for L=           0  read in
    real space projection operators read in
  non local Contribution for L=           0  read in
    real space projection operators read in
  non local Contribution for L=           1  read in
    real space projection operators read in
  non local Contribution for L=           1  read in
    real space projection operators read in
    PAW grid and wavefunctions read in
 
   number of l-projection  operators is LMAX  =           6
   number of lm-projection operators is LMMAX =          18
 
 POTCAR:    PAW_PBE C 08Apr2002                   
  local pseudopotential read in
  partial core-charges read in
  partial kinetic energy density read in
  atomic valenz-charges read in
  non local Contribution for L=           0  read in
    real space projection operators read in
  non local Contribution for L=           0  read in
    real space projection operators read in
  non local Contribution for L=           1  read in
    real space projection operators read in
  non local Contribution for L=           1  read in
    real space projection operators read in
    PAW grid and wavefunctions read in
 
   number of l-projection  operators is LMAX  =           4
   number of lm-projection operators is LMMAX =           8
 
 POTCAR:    PAW_PBE H 15Jun2001                   
  local pseudopotential read in
  atomic valenz-charges read in
  non local Contribution for L=           0  read in
    real space projection operators read in
  non local Contribution for L=           0  read in
    real space projection operators read in
  non local Contribution for L=           1  read in
    real space projection operators read in
    PAW grid and wavefunctions read in
 
   number of l-projection  operators is LMAX  =           3
   number of lm-projection operators is LMMAX =           5
 
 POTCAR:    PAW_PBE O 08Apr2002                   
  local pseudopotential read in
  partial core-charges read in
  partial kinetic energy density read in
  kinetic energy density of atom read in
  atomic valenz-charges read in
  non local Contribution for L=           0  read in
    real space projection operators read in
  non local Contribution for L=           0  read in
    real space projection operators read in
  non local Contribution for L=           1  read in
    real space projection operators read in
  non local Contribution for L=           1  read in
    real space projection operators read in
    PAW grid and wavefunctions read in
 
   number of l-projection  operators is LMAX  =           4
   number of lm-projection operators is LMMAX =           8
 
 Optimization of the real space projectors (new method)

 maximal supplied QI-value         = 16.25
 optimisation between [QCUT,QGAM] = [ 10.73, 21.61] = [ 32.22,130.83] Ry 
 Optimized for a Real-space Cutoff    1.34 Angstroem

   l    n(q)    QCUT    max X(q) W(low)/X(q) W(high)/X(q)  e(spline) 
   2      8    10.726    60.317    0.47E-03    0.39E-03    0.97E-07
   2      8    10.726    55.921    0.48E-03    0.39E-03    0.10E-06
   0      9    10.726    51.690    0.35E-03    0.32E-03    0.97E-07
   0      9    10.726    30.015    0.31E-03    0.29E-03    0.88E-07
   1      8    10.726    18.849    0.34E-03    0.47E-04    0.17E-06
   1      8    10.726    14.624    0.29E-03    0.31E-04    0.15E-06
 Optimization of the real space projectors (new method)

 maximal supplied QI-value         = 25.13
 optimisation between [QCUT,QGAM] = [ 10.81, 21.61] = [ 32.71,130.83] Ry 
 Optimized for a Real-space Cutoff    1.23 Angstroem

   l    n(q)    QCUT    max X(q) W(low)/X(q) W(high)/X(q)  e(spline) 
   0      8    10.807   115.676    0.36E-03    0.72E-03    0.24E-06
   0      8    10.807    87.132    0.35E-03    0.71E-03    0.24E-06
   1      7    10.807     4.429    0.19E-03    0.39E-03    0.11E-06
   1      7    10.807     2.733    0.14E-03    0.28E-03    0.13E-06
 Optimization of the real space projectors (new method)

 maximal supplied QI-value         = 34.20
 optimisation between [QCUT,QGAM] = [ 10.60, 21.55] = [ 31.48,130.03] Ry 
 Optimized for a Real-space Cutoff    1.23 Angstroem

   l    n(q)    QCUT    max X(q) W(low)/X(q) W(high)/X(q)  e(spline) 
   0      8    10.603    19.460    0.37E-03    0.59E-03    0.23E-06
   0      8    10.603    12.209    0.35E-03    0.56E-03    0.22E-06
   1      7    10.603     4.655    0.70E-04    0.28E-03    0.29E-06
 Optimization of the real space projectors (new method)

 maximal supplied QI-value         = 24.76
 optimisation between [QCUT,QGAM] = [ 10.64, 21.54] = [ 31.73,129.89] Ry 
 Optimized for a Real-space Cutoff    1.23 Angstroem

   l    n(q)    QCUT    max X(q) W(low)/X(q) W(high)/X(q)  e(spline) 
   0      8    10.645    20.381    0.38E-03    0.60E-03    0.15E-06
   0      8    10.645    15.268    0.40E-03    0.65E-03    0.17E-06
   1      7    10.645     5.964    0.30E-03    0.63E-03    0.18E-06
   1      7    10.645     5.382    0.24E-03    0.53E-03    0.16E-06
  PAW_PBE Ni 02Aug2007                  :
 energy of atom  1       EATOM=-1077.6739
 kinetic energy error for atom=    0.0038 (will be added to EATOM!!)
  PAW_PBE C 08Apr2002                   :
 energy of atom  2       EATOM= -147.1560
 kinetic energy error for atom=    0.0116 (will be added to EATOM!!)
  PAW_PBE H 15Jun2001                   :
 energy of atom  3       EATOM=  -12.4884
 kinetic energy error for atom=    0.0045 (will be added to EATOM!!)
  PAW_PBE O 08Apr2002                   :
 energy of atom  4       EATOM= -432.3788
 kinetic energy error for atom=    0.0389 (will be added to EATOM!!)
 
 
 POSCAR: Ni  C  H  O                             
  positions in cartesian coordinates
  No initial velocities read in
 exchange correlation table for  LEXCH =        8
   RHO(1)=    0.500       N(1)  =     2000
   RHO(2)=  100.500       N(2)  =     4000
 


--------------------------------------------------------------------------------------------------------


 ion  position               nearest neighbor table
   1  0.000  0.250  0.190-  30 2.46  53 2.46  54 2.46   4 2.49   2 2.49  28 2.49   6 2.49  25 2.49
                             5 2.49
   2  0.000  0.500  0.190-  31 2.46  54 2.46  55 2.46   3 2.49   1 2.49  25 2.49   7 2.49  26 2.49
                             6 2.49
   3  0.000  0.750  0.190-  32 2.46  55 2.46  56 2.46   4 2.49   2 2.49  26 2.49   8 2.49  27 2.49
                             7 2.49
   4  0.000  1.000  0.190-  29 2.46  56 2.46  53 2.46   3 2.49   1 2.49  27 2.49   5 2.49  28 2.49
                             8 2.49
   5  0.143  0.250  0.190-  34 2.46  29 2.46  30 2.46   8 2.49   6 2.49  10 2.49   4 2.49   9 2.49
                             1 2.49
   6  0.143  0.500  0.190-  35 2.46  30 2.46  31 2.46   7 2.49   5 2.49  11 2.49   1 2.49  10 2.49
                             2 2.49
   7  0.143  0.750  0.190-  36 2.46  31 2.46  32 2.46   8 2.49   6 2.49  12 2.49   2 2.49  11 2.49
                             3 2.49
   8  0.143  1.000  0.190-  33 2.46  32 2.46  29 2.46   7 2.49   5 2.49   9 2.49   3 2.49  12 2.49
                             4 2.49
   9  0.286  0.250  0.190-  38 2.46  33 2.46  34 2.46  12 2.49  10 2.49   8 2.49  14 2.49   5 2.49
                            13 2.49
  10  0.286  0.500  0.190-  85 2.18  86 2.38  39 2.46  34 2.46  35 2.46  11 2.49   9 2.49   5 2.49
                            15 2.49   6 2.49  14 2.49
  11  0.286  0.750  0.190-  89 2.05  88 2.30  40 2.46  35 2.46  36 2.46  12 2.49  10 2.49   6 2.49
                            16 2.49   7 2.49  15 2.49
  12  0.286  1.000  0.190-  37 2.46  36 2.46  33 2.46  11 2.49   9 2.49   7 2.49  13 2.49   8 2.49
                            16 2.49
  13  0.429  0.250  0.190-  42 2.46  37 2.46  38 2.46  16 2.49  14 2.49  18 2.49  12 2.49   9 2.49
                            17 2.49
  14  0.429  0.500  0.190-  43 2.46  38 2.46  39 2.46  15 2.49  13 2.49  19 2.49   9 2.49  10 2.49
                            18 2.49  86 2.52
  15  0.429  0.750  0.190-  87 2.00  88 2.42  44 2.46  39 2.46  40 2.46  86 2.47  14 2.49  16 2.49
                            10 2.49  20 2.49  19 2.49  11 2.49
  16  0.429  1.000  0.190-  88 2.38  41 2.46  40 2.46  37 2.46  13 2.49  15 2.49  11 2.49  17 2.49
                            12 2.49  20 2.49
  17  0.571  0.250  0.190-  46 2.46  41 2.46  42 2.46  20 2.49  18 2.49  22 2.49  16 2.49  21 2.49
                            13 2.49
  18  0.571  0.500  0.190-  47 2.46  42 2.46  43 2.46  19 2.49  17 2.49  23 2.49  13 2.49  22 2.49
                            14 2.49
  19  0.571  0.750  0.190-  48 2.46  43 2.46  44 2.46  20 2.49  18 2.49  24 2.49  14 2.49  23 2.49
                            15 2.49
  20  0.571  1.000  0.190- 111 2.15  45 2.46  44 2.46  41 2.46  17 2.49  19 2.49  21 2.49  15 2.49
                            24 2.49  16 2.49
  21  0.714  0.250  0.190-  50 2.46  45 2.46  46 2.46  24 2.49  22 2.49  20 2.49  26 2.49  17 2.49
                            25 2.49
  22  0.714  0.500  0.190-  51 2.46  46 2.46  47 2.46  23 2.49  21 2.49  17 2.49  27 2.49  18 2.49
                            26 2.49
  23  0.714  0.750  0.190-  52 2.46  47 2.46  48 2.46  24 2.49  22 2.49  18 2.49  28 2.49  19 2.49
                            27 2.49
  24  0.714  1.000  0.190-  49 2.46  48 2.46  45 2.46  23 2.49  21 2.49  19 2.49  25 2.49  20 2.49
                            28 2.49
  25  0.857  0.250  0.190-  54 2.46  49 2.46  50 2.46  28 2.49  26 2.49   2 2.49  24 2.49   1 2.49
                            21 2.49
  26  0.857  0.500  0.190-  55 2.46  50 2.46  51 2.46  27 2.49  25 2.49   3 2.49  21 2.49   2 2.49
                            22 2.49
  27  0.857  0.750  0.190-  56 2.46  51 2.46  52 2.46  28 2.49  26 2.49   4 2.49  22 2.49   3 2.49
                            23 2.49
  28  0.857  1.000  0.190-  53 2.46  52 2.46  49 2.46  27 2.49  25 2.49   1 2.49  23 2.49   4 2.49
                            24 2.49
  29  0.095  0.083  0.095-   4 2.46   5 2.46   8 2.46  60 2.46  57 2.46  61 2.46  32 2.49  30 2.49
                            34 2.49  56 2.49  33 2.49  53 2.49
  30  0.095  0.333  0.095-   1 2.46   6 2.46   5 2.46  57 2.46  58 2.46  62 2.46  31 2.49  29 2.49
                            35 2.49  53 2.49  34 2.49  54 2.49
  31  0.095  0.583  0.095-   2 2.46   7 2.46   6 2.46  58 2.46  59 2.46  63 2.46  32 2.49  30 2.49
                            36 2.49  54 2.49  35 2.49  55 2.49
  32  0.095  0.833  0.095-   3 2.46   8 2.46   7 2.46  59 2.46  60 2.46  64 2.46  31 2.49  29 2.49
                            33 2.49  55 2.49  36 2.49  56 2.49
  33  0.238  0.083  0.095-   8 2.46   9 2.46  12 2.46  64 2.46  61 2.46  65 2.46  36 2.49  34 2.49
                            32 2.49  38 2.49  29 2.49  37 2.49
  34  0.238  0.333  0.095-   5 2.46  10 2.46   9 2.46  61 2.46  62 2.46  66 2.46  35 2.49  33 2.49
                            29 2.49  39 2.49  30 2.49  38 2.49
  35  0.238  0.583  0.095-   6 2.46  11 2.46  10 2.46  62 2.46  63 2.46  67 2.46  36 2.49  34 2.49
                            30 2.49  40 2.49  31 2.49  39 2.49
  36  0.238  0.833  0.095-   7 2.46  12 2.46  11 2.46  63 2.46  64 2.46  68 2.46  35 2.49  33 2.49
                            31 2.49  37 2.49  32 2.49  40 2.49
  37  0.381  0.083  0.095-  12 2.46  13 2.46  16 2.46  68 2.46  65 2.46  69 2.46  40 2.49  38 2.49
                            42 2.49  36 2.49  33 2.49  41 2.49
  38  0.381  0.333  0.095-   9 2.46  14 2.46  13 2.46  65 2.46  66 2.46  70 2.46  39 2.49  37 2.49
                            43 2.49  33 2.49  34 2.49  42 2.49
  39  0.381  0.583  0.095-  10 2.46  15 2.46  14 2.46  66 2.46  67 2.46  71 2.46  40 2.49  38 2.49
                            44 2.49  34 2.49  35 2.49  43 2.49
  40  0.381  0.833  0.095-  11 2.46  16 2.46  15 2.46  67 2.46  68 2.46  72 2.46  39 2.49  37 2.49
                            41 2.49  35 2.49  44 2.49  36 2.49
  41  0.524  0.083  0.095-  16 2.46  17 2.46  20 2.46  72 2.46  69 2.46  73 2.46  44 2.49  42 2.49
                            46 2.49  40 2.49  45 2.49  37 2.49
  42  0.524  0.333  0.095-  13 2.46  18 2.46  17 2.46  69 2.46  70 2.46  74 2.46  43 2.49  41 2.49
                            47 2.49  37 2.49  46 2.49  38 2.49
  43  0.524  0.583  0.095-  14 2.46  19 2.46  18 2.46  70 2.46  71 2.46  75 2.46  44 2.49  42 2.49
                            48 2.49  38 2.49  47 2.49  39 2.49
  44  0.524  0.833  0.095-  15 2.46  20 2.46  19 2.46  71 2.46  72 2.46  76 2.46  43 2.49  41 2.49
                            45 2.49  39 2.49  48 2.49  40 2.49
  45  0.667  0.083  0.095-  20 2.46  21 2.46  24 2.46  76 2.46  73 2.46  77 2.46  48 2.49  46 2.49
                            44 2.49  50 2.49  41 2.49  49 2.49
  46  0.667  0.333  0.095-  17 2.46  22 2.46  21 2.46  73 2.46  74 2.46  78 2.46  47 2.49  45 2.49
                            41 2.49  51 2.49  42 2.49  50 2.49
  47  0.667  0.583  0.095-  18 2.46  23 2.46  22 2.46  74 2.46  75 2.46  79 2.46  48 2.49  46 2.49
                            42 2.49  52 2.49  43 2.49  51 2.49
  48  0.667  0.833  0.095-  19 2.46  24 2.46  23 2.46  75 2.46  76 2.46  80 2.46  47 2.49  45 2.49
                            43 2.49  49 2.49  44 2.49  52 2.49
  49  0.810  0.083  0.095-  24 2.46  25 2.46  28 2.46  80 2.46  77 2.46  81 2.46  52 2.49  50 2.49
                            54 2.49  48 2.49  53 2.49  45 2.49
  50  0.810  0.333  0.095-  21 2.46  26 2.46  25 2.46  77 2.46  78 2.46  82 2.46  51 2.49  49 2.49
                            55 2.49  45 2.49  54 2.49  46 2.49
  51  0.810  0.583  0.095-  22 2.46  27 2.46  26 2.46  78 2.46  79 2.46  83 2.46  52 2.49  50 2.49
                            56 2.49  46 2.49  55 2.49  47 2.49
  52  0.810  0.833  0.095-  23 2.46  28 2.46  27 2.46  79 2.46  80 2.46  84 2.46  51 2.49  49 2.49
                            53 2.49  47 2.49  56 2.49  48 2.49
  53  0.952  0.083  0.095-  28 2.46   1 2.46   4 2.46  84 2.46  81 2.46  57 2.46  56 2.49  54 2.49
                            52 2.49  30 2.49  49 2.49  29 2.49
  54  0.952  0.333  0.095-  25 2.46   2 2.46   1 2.46  81 2.46  82 2.46  58 2.46  55 2.49  53 2.49
                            49 2.49  31 2.49  50 2.49  30 2.49
  55  0.952  0.583  0.095-  26 2.46   3 2.46   2 2.46  82 2.46  83 2.46  59 2.46  56 2.49  54 2.49
                            50 2.49  32 2.49  51 2.49  31 2.49
  56  0.952  0.833  0.095-  27 2.46   4 2.46   3 2.46  83 2.46  84 2.46  60 2.46  55 2.49  53 2.49
                            51 2.49  29 2.49  52 2.49  32 2.49
  57  0.048  0.167  0.000-  30 2.46  29 2.46  53 2.46  58 2.49  60 2.49  62 2.49  84 2.49  81 2.49
                            61 2.49
  58  0.048  0.417  0.000-  31 2.46  30 2.46  54 2.46  57 2.49  59 2.49  63 2.49  81 2.49  62 2.49
                            82 2.49
  59  0.048  0.667  0.000-  32 2.46  31 2.46  55 2.46  58 2.49  60 2.49  64 2.49  82 2.49  63 2.49
                            83 2.49
  60  0.048  0.917  0.000-  29 2.46  32 2.46  56 2.46  57 2.49  59 2.49  61 2.49  83 2.49  64 2.49
                            84 2.49
  61  0.190  0.167  0.000-  34 2.46  33 2.46  29 2.46  62 2.49  64 2.49  66 2.49  60 2.49  65 2.49
                            57 2.49
  62  0.190  0.417  0.000-  35 2.46  34 2.46  30 2.46  61 2.49  63 2.49  67 2.49  57 2.49  66 2.49
                            58 2.49
  63  0.190  0.667  0.000-  36 2.46  35 2.46  31 2.46  62 2.49  64 2.49  68 2.49  58 2.49  67 2.49
                            59 2.49
  64  0.190  0.917  0.000-  33 2.46  36 2.46  32 2.46  61 2.49  63 2.49  65 2.49  59 2.49  68 2.49
                            60 2.49
  65  0.333  0.167  0.000-  38 2.46  37 2.46  33 2.46  66 2.49  68 2.49  64 2.49  70 2.49  61 2.49
                            69 2.49
  66  0.333  0.417  0.000-  39 2.46  38 2.46  34 2.46  65 2.49  67 2.49  61 2.49  71 2.49  62 2.49
                            70 2.49
  67  0.333  0.667  0.000-  40 2.46  39 2.46  35 2.46  66 2.49  68 2.49  62 2.49  72 2.49  63 2.49
                            71 2.49
  68  0.333  0.917  0.000-  37 2.46  40 2.46  36 2.46  65 2.49  67 2.49  63 2.49  69 2.49  64 2.49
                            72 2.49
  69  0.476  0.167  0.000-  42 2.46  41 2.46  37 2.46  70 2.49  72 2.49  74 2.49  68 2.49  73 2.49
                            65 2.49
  70  0.476  0.417  0.000-  43 2.46  42 2.46  38 2.46  69 2.49  71 2.49  75 2.49  65 2.49  74 2.49
                            66 2.49
  71  0.476  0.667  0.000-  44 2.46  43 2.46  39 2.46  70 2.49  72 2.49  76 2.49  66 2.49  75 2.49
                            67 2.49
  72  0.476  0.917  0.000-  41 2.46  44 2.46  40 2.46  69 2.49  71 2.49  73 2.49  67 2.49  76 2.49
                            68 2.49
  73  0.619  0.167  0.000-  46 2.46  45 2.46  41 2.46  74 2.49  76 2.49  72 2.49  78 2.49  69 2.49
                            77 2.49
  74  0.619  0.417  0.000-  47 2.46  46 2.46  42 2.46  73 2.49  75 2.49  69 2.49  79 2.49  70 2.49
                            78 2.49
  75  0.619  0.667  0.000-  48 2.46  47 2.46  43 2.46  74 2.49  76 2.49  70 2.49  80 2.49  71 2.49
                            79 2.49
  76  0.619  0.917  0.000-  45 2.46  48 2.46  44 2.46  73 2.49  75 2.49  71 2.49  77 2.49  72 2.49
                            80 2.49
  77  0.762  0.167  0.000-  50 2.46  49 2.46  45 2.46  78 2.49  80 2.49  82 2.49  76 2.49  81 2.49
                            73 2.49
  78  0.762  0.417  0.000-  51 2.46  50 2.46  46 2.46  77 2.49  79 2.49  83 2.49  73 2.49  82 2.49
                            74 2.49
  79  0.762  0.667  0.000-  52 2.46  51 2.46  47 2.46  78 2.49  80 2.49  84 2.49  74 2.49  83 2.49
                            75 2.49
  80  0.762  0.917  0.000-  49 2.46  52 2.46  48 2.46  77 2.49  79 2.49  81 2.49  75 2.49  84 2.49
                            76 2.49
  81  0.905  0.167  0.000-  54 2.46  53 2.46  49 2.46  82 2.49  84 2.49  80 2.49  58 2.49  77 2.49
                            57 2.49
  82  0.905  0.417  0.000-  55 2.46  54 2.46  50 2.46  81 2.49  83 2.49  77 2.49  59 2.49  78 2.49
                            58 2.49
  83  0.905  0.667  0.000-  56 2.46  55 2.46  51 2.46  82 2.49  84 2.49  78 2.49  60 2.49  79 2.49
                            59 2.49
  84  0.905  0.917  0.000-  53 2.46  56 2.46  52 2.46  81 2.49  83 2.49  79 2.49  57 2.49  80 2.49
                            60 2.49
  85  0.278  0.500  0.293- 110 1.38  86 1.44  90 1.44  10 2.18
  86  0.373  0.581  0.284-  95 1.09  85 1.44  87 1.45  10 2.38  15 2.47  14 2.52
  87  0.423  0.750  0.284-  86 1.45  88 1.46  92 1.53  15 2.00
  88  0.374  0.832  0.279-  96 1.10  89 1.45  87 1.46  11 2.30  16 2.38  15 2.42
  89  0.278  0.750  0.287-  97 1.09  90 1.42  88 1.45  11 2.05
  90  0.232  0.587  0.297- 109 1.36  89 1.42  85 1.44
  91  0.277  0.277  0.339- 100 1.10  99 1.10 101 1.11 110 1.43
  92  0.510  0.835  0.321- 102 1.11 111 1.46  87 1.53  93 1.53
  93  0.560  0.747  0.331- 103 1.10 108 1.12  92 1.53  94 1.53
  94  0.647  0.838  0.367- 105 1.10 106 1.10 112 1.44  93 1.53
  95  0.407  0.518  0.297-  86 1.09
  96  0.409  0.955  0.292-  88 1.10
  97  0.246  0.813  0.302-  89 1.09
  98  0.127  0.409  0.328- 109 0.98
  99  0.327  0.347  0.375-  91 1.10
 100  0.226  0.166  0.359-  91 1.10
 101  0.308  0.255  0.298-  91 1.11
 102  0.493  0.860  0.369-  92 1.11
 103  0.518  0.639  0.357-  93 1.10
 104  0.627  0.023  0.307- 111 1.00
 105  0.634  0.863  0.416-  94 1.10
 106  0.681  0.769  0.370-  94 1.10
 107  0.734  0.974  0.301- 112 0.99
 108  0.574  0.710  0.284-  93 1.12
 109  0.151  0.522  0.325-  98 0.98  90 1.36
 110  0.230  0.355  0.320-  85 1.38  91 1.43
 111  0.565  0.985  0.291- 104 1.00  92 1.46  20 2.15
 112  0.706  0.988  0.340- 107 0.99  94 1.44
 
  Warning from LATTYP: Monoclinic adjustement (A1->A3, A2->A1, A3->A2)!
  Warning from LATTYP: Got some problem with cell dimensions!
  Tried to take original basis but could not verify dimensions!
  LATTYP: Found a simple monoclinic cell.
 ALAT       =    18.7839874413
 B/A-ratio  =     1.1229936872
 C/A-ratio  =     1.7371079010
 COS(beta)  =    -0.9695485959
  
  Lattice vectors:
  
 A1 = (  -7.4639997487, -17.2373690552,   0.0000000000)
 A2 = (   0.0000000000,   0.0000000000, -21.0942993164)
 A3 = (  19.9039993294,  25.8560535828,   0.0000000000)


Analysis of symmetry for initial positions (statically):
=====================================================================
 Subroutine PRICEL returns:
 Original cell was already a primitive cell.
 

 Routine SETGRP: Setting up the symmetry group for a 
 simple monoclinic supercell.


 Subroutine GETGRP returns: Found  1 space group operations
 (whereof  1 operations were pure point group operations)
 out of a pool of  4 trial point group operations.


The static configuration has the point symmetry C_1 .


Analysis of symmetry for dynamics (positions and initial velocities):
=====================================================================
 Subroutine PRICEL returns:
 Original cell was already a primitive cell.
 

 Routine SETGRP: Setting up the symmetry group for a 
 simple monoclinic supercell.


 Subroutine GETGRP returns: Found  1 space group operations
 (whereof  1 operations were pure point group operations)
 out of a pool of  4 trial point group operations.


The dynamic configuration has the point symmetry C_1 .


Analysis of constrained symmetry for selective dynamics:
=====================================================================
 Subroutine PRICEL returns:
 Original cell was already a primitive cell.
 

 Routine SETGRP: Setting up the symmetry group for a 
 simple monoclinic supercell.


 Subroutine GETGRP returns: Found  1 space group operations
 (whereof  1 operations were pure point group operations)
 out of a pool of  4 trial point group operations.


The constrained configuration has the point symmetry C_1 .


Analysis of structural, dynamic, and magnetic symmetry:
=====================================================================
 Subroutine PRICEL returns:
 Original cell was already a primitive cell.
 

 Routine SETGRP: Setting up the symmetry group for a 
 simple monoclinic supercell.


 Subroutine GETGRP returns: Found  1 space group operations
 (whereof  1 operations were pure point group operations)
 out of a pool of  4 trial point group operations.


The magnetic configuration has the point symmetry C_1 .


 Subroutine INISYM returns: Found  1 space group operations
 (whereof  1 operations are pure point group operations),
 and found     1 'primitive' translations

 
 
 KPOINTS: K-POINTS                                

Automatic generation of k-mesh.
Space group operators:
 irot       det(A)        alpha          n_x          n_y          n_z        tau_x        tau_y        tau_z
    1     1.000000     0.000001     1.000000     0.000000     0.000000     0.000000     0.000000     0.000000
 
 Subroutine IBZKPT returns following result:
 ===========================================
 
 Found      5 irreducible k-points:
 
 Following reciprocal coordinates:
            Coordinates               Weight
  0.000000  0.000000  0.000000      1.000000
  0.333333 -0.000000  0.000000      2.000000
  0.000000  0.333333  0.000000      2.000000
  0.333333  0.333333  0.000000      2.000000
 -0.333333  0.333333  0.000000      2.000000
 
 Following cartesian coordinates:
            Coordinates               Weight
  0.000000  0.000000  0.000000      1.000000
  0.019139  0.011050  0.000000      2.000000
  0.000000  0.038676  0.000000      2.000000
  0.019139  0.049726  0.000000      2.000000
 -0.019139  0.027625  0.000000      2.000000
 


--------------------------------------------------------------------------------------------------------




 Dimension of arrays:
   k-points           NKPTS =      5   k-points in BZ     NKDIM =      5   number of bands    NBANDS=    624
   number of dos      NEDOS =    301   number of ions     NIONS =    112
   non local maximal  LDIM  =      6   non local SUM 2l+1 LMDIM =     18
   total plane-waves  NPLWV = 544320
   max r-space proj   IRMAX =   1785   max aug-charges    IRDMAX=   5771
   dimension x,y,z NGX =    90 NGY =   54 NGZ =  112
   dimension x,y,z NGXF=   180 NGYF=  108 NGZF=  224
   support grid    NGXF=   180 NGYF=  108 NGZF=  224
   ions per type =              84  10  14   4
   NGX,Y,Z   is equivalent  to a cutoff of   8.59,  9.02,  8.83 a.u.
   NGXF,Y,Z  is equivalent  to a cutoff of  17.18, 18.04, 17.65 a.u.

 SYSTEM =  x                                       
 POSCAR =  Ni  C  H  O                             

 Startparameter for this run:
   NWRITE =      0    write-flag & timer
   PREC   = normal    normal or accurate (medium, high low for compatibility)
   ISTART =      0    job   : 0-new  1-cont  2-samecut
   ICHARG =      2    charge: 1-file 2-atom 10-const
   ISPIN  =      2    spin polarized calculation?
   LNONCOLLINEAR =      F non collinear calculations
   LSORBIT =      F    spin-orbit coupling
   INIWAV =      1    electr: 0-lowe 1-rand  2-diag
   LASPH  =      F    aspherical Exc in radial PAW
   METAGGA=      F    non-selfconsistent MetaGGA calc.

 Electronic Relaxation 1
   ENCUT  =  450.0 eV  33.07 Ry    5.75 a.u.  30.12 17.21 36.49*2*pi/ulx,y,z
   ENINI  =  450.0     initial cutoff
   ENAUG  =  644.9 eV  augmentation charge cutoff
   NELM   =     50;   NELMIN=  5; NELMDL= -7     # of ELM steps 
   EDIFF  = 0.1E-04   stopping-criterion for ELM
   LREAL  =      T    real-space projection
   NLSPLINE    = F    spline interpolate recip. space projectors
   LCOMPAT=      F    compatible to vasp.4.4
   GGA_COMPAT  = T    GGA compatible to vasp.4.4-vasp.4.6
   LMAXPAW     = -100 max onsite density
   LMAXMIX     =    2 max onsite mixed and CHGCAR
   VOSKOWN=      0    Vosko Wilk Nusair interpolation
   ROPT   =   -0.00050  -0.00050  -0.00050  -0.00050
 Ionic relaxation
   EDIFFG = -.2E-01   stopping-criterion for IOM
   NSW    =    300    number of steps for IOM
   NBLOCK =      1;   KBLOCK =    300    inner block; outer block 
   IBRION =      2    ionic relax: 0-MD 1-quasi-New 2-CG
   NFREE  =      2    steps in history (QN), initial steepest desc. (CG)
   ISIF   =      2    stress and relaxation
   IWAVPR =     11    prediction:  0-non 1-charg 2-wave 3-comb
   ISYM   =      2    0-nonsym 1-usesym 2-fastsym
   LCORR  =      T    Harris-Foulkes like correction to forces

   POTIM  = 0.1500    time-step for ionic-motion
   TEIN   =    0.0    initial temperature
   TEBEG  =    0.0;   TEEND  =   0.0 temperature during run
   SMASS  =  -3.00    Nose mass-parameter (am)
   estimated Nose-frequenzy (Omega)   =  0.10E-29 period in steps =****** mass=  -0.693E-26a.u.
   SCALEE = 1.0000    scale energy and forces
   NPACO  =    256;   APACO  = 16.0  distance and # of slots for P.C.
   PSTRESS=    0.0 pullay stress

  Mass of Ions in am
   POMASS =  58.69 12.01  1.00 16.00
  Ionic Valenz
   ZVAL   =  10.00  4.00  1.00  6.00
  Atomic Wigner-Seitz radii
   RWIGS  =  -1.00 -1.00 -1.00 -1.00
  virtual crystal weights 
   VCA    =   1.00  1.00  1.00  1.00
   NELECT =     918.0000    total number of electrons
   NUPDOWN=      -1.0000    fix difference up-down

 DOS related values:
   EMIN   =  10.00;   EMAX   =-10.00  energy-range for DOS
   EFERMI =   0.00
   ISMEAR =     0;   SIGMA  =   0.03  broadening in eV -4-tet -1-fermi 0-gaus

 Electronic relaxation 2 (details)
   IALGO  =     68    algorithm
   LDIAG  =      T    sub-space diagonalisation (order eigenvalues)
   LSUBROT=      F    optimize rotation matrix (better conditioning)
   TURBO    =      0    0=normal 1=particle mesh
   IRESTART =      0    0=no restart 2=restart with 2 vectors
   NREBOOT  =      0    no. of reboots
   NMIN     =      0    reboot dimension
   EREF     =   0.00    reference energy to select bands
   IMIX   =      4    mixing-type and parameters
     AMIX     =   0.40;   BMIX     =  1.00
     AMIX_MAG =   1.60;   BMIX_MAG =  1.00
     AMIN     =   0.10
     WC   =   100.;   INIMIX=   1;  MIXPRE=   1;  MAXMIX= -45

 Intra band minimization:
   WEIMIN = 0.0010     energy-eigenvalue tresh-hold
   EBREAK =  0.40E-08  absolut break condition
   DEPER  =   0.30     relativ break condition  

   TIME   =   0.40     timestep for ELM

  volume/ion in A,a.u.               =      28.27       190.78
  Fermi-wavevector in a.u.,A,eV,Ry     =   1.083522  2.047559 15.973498  1.174019
  Thomas-Fermi vector in A             =   2.219590
 
 Write flags
   LWAVE        =      F    write WAVECAR
   LDOWNSAMPLE  =      F    k-point downsampling of WAVECAR
   LCHARG       =      F    write CHGCAR
   LVTOT        =      F    write LOCPOT, total local potential
   LVHAR        =      F    write LOCPOT, Hartree potential only
   LELF         =      F    write electronic localiz. function (ELF)
   LORBIT       =      0    0 simple, 1 ext, 2 COOP (PROOUT), +10 PAW based schemes


 Dipole corrections
   LMONO  =      F    monopole corrections only (constant potential shift)
   LDIPOL =      T    correct potential (dipole corrections)
   IDIPOL =      3    1-x, 2-y, 3-z, 4-all directions 
   EPSILON=  1.0000000 bulk dielectric constant

 Exchange correlation treatment:
   GGA     =    PE    GGA type
   LEXCH   =     8    internal setting for exchange type
   VOSKOWN=      0    Vosko Wilk Nusair interpolation
   LHFCALC =     F    Hartree Fock is set to
   LHFONE  =     F    Hartree Fock one center treatment
   AEXX    =    0.0000 exact exchange contribution

 Linear response parameters
   LEPSILON=     F    determine dielectric tensor
   LRPA    =     F    only Hartree local field effects (RPA)
   LNABLA  =     F    use nabla operator in PAW spheres
   LVEL    =     F    velocity operator in full k-point grid
   LINTERFAST=   F  fast interpolation
   KINTER  =     0    interpolate to denser k-point grid
   CSHIFT  =0.1000    complex shift for real part using Kramers Kronig
   OMEGAMAX=  -1.0    maximum frequency
   DEG_THRESHOLD= 0.2000000E-02 threshold for treating states as degnerate
   RTIME   =   -0.100 relaxation time in fs
  (WPLASMAI=    0.000 imaginary part of plasma frequency in eV, 0.658/RTIME)
   DFIELD  = 0.0000000 0.0000000 0.0000000 field for delta impulse in time
 
 Orbital magnetization related:
   ORBITALMAG=     F  switch on orbital magnetization
   LCHIMAG   =     F  perturbation theory with respect to B field
   DQ        =  0.001000  dq finite difference perturbation B field
   LLRAUG    =     F  two centre corrections for induced B field



--------------------------------------------------------------------------------------------------------


 conjugate gradient relaxation of ions
   using selective dynamics as specified on POSCAR
   WARNING: If single coordinates had been selected the selection of coordinates
            is made according to the corresponding   d i r e c t   coordinates!
            Don't support selection of single cartesian coordinates -- sorry ...
  !
 charge density and potential will be updated during run
 spin polarized calculation
 RMM-DIIS sequential band-by-band and
  variant of blocked Davidson during initial phase
 perform sub-space diagonalisation
    before iterative eigenvector-optimisation
 modified Broyden-mixing scheme, WC =      100.0
 initial mixing is a Kerker type mixing with AMIX =  0.4000 and BMIX =      1.0000
 Hartree-type preconditioning will be used
 using additional bands          165
 real space projection scheme for non local part
 use partial core corrections
 calculate Harris-corrections to forces 
   (improved forces if not selfconsistent)
 use gradient corrections 
 use of overlap-Matrix (Vanderbilt PP)
 Gauss-broadening in eV      SIGMA  =   0.03


--------------------------------------------------------------------------------------------------------


  energy-cutoff  :      450.00
  volume of cell :     3166.32
      direct lattice vectors                 reciprocal lattice vectors
    17.415999413  0.000000000  0.000000000     0.057418468  0.033150568  0.000000000
    -4.975999832  8.618684528  0.000000000     0.000000000  0.116026987  0.000000000
     0.000000000  0.000000000 21.094299316     0.000000000  0.000000000  0.047406173

  length of vectors
    17.415999413  9.951999664 21.094299316     0.066301136  0.116026987  0.047406173


 
 k-points in units of 2pi/SCALE and weight: K-POINTS                                
   0.00000000  0.00000000  0.00000000       0.111
   0.01913949  0.01105019  0.00000000       0.222
   0.00000000  0.03867566  0.00000000       0.222
   0.01913949  0.04972585  0.00000000       0.222
  -0.01913949  0.02762547  0.00000000       0.222
 
 k-points in reciprocal lattice and weights: K-POINTS                                
   0.00000000  0.00000000  0.00000000       0.111
   0.33333333 -0.00000000  0.00000000       0.222
   0.00000000  0.33333333  0.00000000       0.222
   0.33333333  0.33333333  0.00000000       0.222
  -0.33333333  0.33333333  0.00000000       0.222
 
 position of ions in fractional coordinates (direct lattice) 
   0.00001537  0.24997681  0.18957704
   0.00001537  0.49997681  0.18957704
   0.00001537  0.74997681  0.18957704
   0.00001537  0.99997681  0.18957704
   0.14287251  0.24997681  0.18957704
   0.14287251  0.49997681  0.18957704
   0.14287251  0.74997681  0.18957704
   0.14287251  0.99997681  0.18957704
   0.28572965  0.24997681  0.18957704
   0.28572965  0.49997681  0.18957704
   0.28572965  0.74997681  0.18957704
   0.28572965  0.99997681  0.18957704
   0.42858680  0.24997681  0.18957704
   0.42858680  0.49997681  0.18957704
   0.42858680  0.74997681  0.18957704
   0.42858680  0.99997681  0.18957704
   0.57144394  0.24997681  0.18957704
   0.57144394  0.49997681  0.18957704
   0.57144394  0.74997681  0.18957704
   0.57144394  0.99997681  0.18957704
   0.71430108  0.24997681  0.18957704
   0.71430108  0.49997681  0.18957704
   0.71430108  0.74997681  0.18957704
   0.71430108  0.99997681  0.18957704
   0.85715822  0.24997681  0.18957704
   0.85715822  0.49997681  0.18957704
   0.85715822  0.74997681  0.18957704
   0.85715822  0.99997681  0.18957704
   0.09522464  0.08331407  0.09489846
   0.09522464  0.33331407  0.09489846
   0.09522464  0.58331407  0.09489846
   0.09522464  0.83331407  0.09489846
   0.23808178  0.08331407  0.09489846
   0.23808178  0.33331407  0.09489846
   0.23808178  0.58331407  0.09489846
   0.23808178  0.83331407  0.09489846
   0.38093893  0.08331407  0.09489846
   0.38093893  0.33331407  0.09489846
   0.38093893  0.58331407  0.09489846
   0.38093893  0.83331407  0.09489846
   0.52379607  0.08331407  0.09489846
   0.52379607  0.33331407  0.09489846
   0.52379607  0.58331407  0.09489846
   0.52379607  0.83331407  0.09489846
   0.66665321  0.08331407  0.09489846
   0.66665321  0.33331407  0.09489846
   0.66665321  0.58331407  0.09489846
   0.66665321  0.83331407  0.09489846
   0.80951035  0.08331407  0.09489846
   0.80951035  0.33331407  0.09489846
   0.80951035  0.58331407  0.09489846
   0.80951035  0.83331407  0.09489846
   0.95236750  0.08331407  0.09489846
   0.95236750  0.33331407  0.09489846
   0.95236750  0.58331407  0.09489846
   0.95236750  0.83331407  0.09489846
   0.04761857  0.16666751  0.00000001
   0.04761857  0.41666751  0.00000001
   0.04761857  0.66666751  0.00000001
   0.04761857  0.91666751  0.00000001
   0.19047572  0.16666751  0.00000001
   0.19047572  0.41666751  0.00000001
   0.19047572  0.66666751  0.00000001
   0.19047572  0.91666751  0.00000001
   0.33333286  0.16666751  0.00000001
   0.33333286  0.41666751  0.00000001
   0.33333286  0.66666751  0.00000001
   0.33333286  0.91666751  0.00000001
   0.47619000  0.16666751  0.00000001
   0.47619000  0.41666751  0.00000001
   0.47619000  0.66666751  0.00000001
   0.47619000  0.91666751  0.00000001
   0.61904714  0.16666751  0.00000001
   0.61904714  0.41666751  0.00000001
   0.61904714  0.66666751  0.00000001
   0.61904714  0.91666751  0.00000001
   0.76190429  0.16666751  0.00000001
   0.76190429  0.41666751  0.00000001
   0.76190429  0.66666751  0.00000001
   0.76190429  0.91666751  0.00000001
   0.90476143  0.16666751  0.00000001
   0.90476143  0.41666751  0.00000001
   0.90476143  0.66666751  0.00000001
   0.90476143  0.91666751  0.00000001
   0.27795005  0.50011933  0.29252134
   0.37255162  0.58124085  0.28398564
   0.42330343  0.74995247  0.28437522
   0.37362705  0.83160229  0.27853817
   0.27834591  0.74972915  0.28652356
   0.23210719  0.58650959  0.29697573
   0.27662742  0.27732414  0.33927766
   0.51026128  0.83491938  0.32107236
   0.56025715  0.74697255  0.33071000
   0.64732556  0.83823931  0.36717736
   0.40694302  0.51848917  0.29692052
   0.40901533  0.95514964  0.29187323
   0.24554489  0.81301298  0.30225233
   0.12714555  0.40931963  0.32769933
   0.32728654  0.34689573  0.37509877
   0.22625810  0.16646841  0.35944905
   0.30838254  0.25481466  0.29808580
   0.49342877  0.86029505  0.36871769
   0.51790378  0.63915099  0.35716175
   0.62692076  0.02326986  0.30698920
   0.63435093  0.86310507  0.41565672
   0.68067320  0.76912243  0.37041667
   0.73371017  0.97371220  0.30108597
   0.57412945  0.70982643  0.28406608
   0.15096511  0.52179636  0.32470683
   0.23005761  0.35503346  0.31976593
   0.56516676  0.98520577  0.29111642
   0.70639299  0.98824677  0.33978351
 
 position of ions in cartesian coordinates  (Angst):
  -1.24361694  2.15447126  3.99899477
  -2.48761690  4.30914239  3.99899477
  -3.73161686  6.46381352  3.99899477
  -4.97561681  8.61848466  3.99899477
   1.24438298  2.15447126  3.99899477
   0.00038302  4.30914239  3.99899477
  -1.24361694  6.46381352  3.99899477
  -2.48761690  8.61848466  3.99899477
   3.73238289  2.15447126  3.99899477
   2.48838294  4.30914239  3.99899477
   1.24438298  6.46381352  3.99899477
   0.00038302  8.61848466  3.99899477
   6.22038281  2.15447126  3.99899477
   4.97638285  4.30914239  3.99899477
   3.73238289  6.46381352  3.99899477
   2.48838294  8.61848466  3.99899477
   8.70838273  2.15447126  3.99899477
   7.46438277  4.30914239  3.99899477
   6.22038281  6.46381352  3.99899477
   4.97638285  8.61848466  3.99899477
  11.19638264  2.15447126  3.99899477
   9.95238268  4.30914239  3.99899477
   8.70838273  6.46381352  3.99899477
   7.46438277  8.61848466  3.99899477
  13.68438256  2.15447126  3.99899477
  12.44038260  4.30914239  3.99899477
  11.19638264  6.46381352  3.99899477
   9.95238268  8.61848466  3.99899477
   1.24386148  0.71805767  2.00181652
  -0.00013847  2.87272880  2.00181652
  -1.24413843  5.02739993  2.00181652
  -2.48813839  7.18207107  2.00181652
   3.73186140  0.71805767  2.00181652
   2.48786144  2.87272880  2.00181652
   1.24386148  5.02739993  2.00181652
  -0.00013847  7.18207107  2.00181652
   6.21986132  0.71805767  2.00181652
   4.97586136  2.87272880  2.00181652
   3.73186140  5.02739993  2.00181652
   2.48786144  7.18207107  2.00181652
   8.70786123  0.71805767  2.00181652
   7.46386128  2.87272880  2.00181652
   6.21986132  5.02739993  2.00181652
   4.97586136  7.18207107  2.00181652
  11.19586115  0.71805767  2.00181652
   9.95186119  2.87272880  2.00181652
   8.70786123  5.02739993  2.00181652
   7.46386128  7.18207107  2.00181652
  13.68386107  0.71805767  2.00181652
  12.43986111  2.87272880  2.00181652
  11.19586115  5.02739993  2.00181652
   9.95186119  7.18207107  2.00181652
  16.17186098  0.71805767  2.00181652
  14.92786102  2.87272880  2.00181652
  13.68386107  5.02739993  2.00181652
  12.43986111  7.18207107  2.00181652
  -0.00001246  1.43645466  0.00000018
  -1.24401242  3.59112579  0.00000018
  -2.48801237  5.74579692  0.00000018
  -3.73201233  7.90046805  0.00000018
   2.48798746  1.43645466  0.00000018
   1.24398750  3.59112579  0.00000018
  -0.00001246  5.74579692  0.00000018
  -1.24401241  7.90046805  0.00000018
   4.97598738  1.43645466  0.00000018
   3.73198742  3.59112579  0.00000018
   2.48798746  5.74579692  0.00000018
   1.24398750  7.90046805  0.00000018
   7.46398729  1.43645466  0.00000018
   6.21998733  3.59112579  0.00000018
   4.97598738  5.74579692  0.00000018
   3.73198742  7.90046805  0.00000018
   9.95198721  1.43645466  0.00000018
   8.70798725  3.59112579  0.00000018
   7.46398729  5.74579692  0.00000018
   6.21998733  7.90046805  0.00000018
  12.43998712  1.43645466  0.00000018
  11.19598717  3.59112579  0.00000018
   9.95198721  5.74579692  0.00000018
   8.70798725  7.90046805  0.00000018
  14.92798704  1.43645466  0.00000018
  13.68398708  3.59112579  0.00000018
  12.43998712  5.74579692  0.00000018
  11.19598717  7.90046805  0.00000018
   2.35218419  4.31037073  6.17053270
   3.59610443  5.00953154  5.99047819
   3.64048890  6.46360375  5.99869603
   2.36903555  7.16731779  5.87556763
   1.11702011  6.46167903  6.04401377
   1.12390715  5.05494111  6.26449504
   3.43777807  2.39016930  7.15682441
   4.73215151  7.19590675  6.77279636
   6.04050290  6.43792074  6.97609570
   7.10274287  7.22452020  7.74534918
   4.50731735  4.46869455  6.26333023
   2.37058629  8.23213340  6.15686135
   0.23085721  7.00710239  6.37580121
   0.17759238  3.52779674  6.91258783
   3.97386915  2.98978485  7.91244577
   3.11216408  1.43473870  7.58232578
   4.10283247  2.19616720  6.28791101
   4.31272707  7.41461168  7.77784130
   5.83939670  5.50864072  7.53407681
  10.80266073  0.20055556  6.47572216
   6.75304483  7.43883029  8.76798718
   8.02745104  6.62882360  7.81368000
   7.93310409  8.39211825  6.35119754
   6.46694203  6.11777007  5.99217497
   0.03274963  4.49719821  6.84946311
   2.24003669  3.05992140  6.74523830
   4.94056016  8.49117775  6.14089696
   7.38502406  8.51738716  7.16749505
 


--------------------------------------------------------------------------------------------------------


 k-point  1 :   0.0000 0.0000 0.0000  plane waves:   68637
 k-point  2 :   0.3333-0.0000 0.0000  plane waves:   68670
 k-point  3 :   0.0000 0.3333 0.0000  plane waves:   68650
 k-point  4 :   0.3333 0.3333 0.0000  plane waves:   68645
 k-point  5 :  -0.3333 0.3333 0.0000  plane waves:   68661

 maximum and minimum number of plane-waves per node :     68670    68637

 maximum number of plane-waves:     68670
 maximum index in each direction: 
   IXMAX=   30   IYMAX=   17   IZMAX=   36
   IXMIN=  -30   IYMIN=  -17   IZMIN=  -36


 serial   3D FFT for wavefunctions
 parallel 3D FFT for charge:
    minimum data exchange during FFTs selected (reduces bandwidth)


 total amount of memory used by VASP MPI-rank0   266277. kBytes
=======================================================================

   base      :      30000. kBytes
   nonlr-proj:      27818. kBytes
   fftplans  :       5452. kBytes
   grid      :      53059. kBytes
   one-center:       3483. kBytes
   wavefun   :     146465. kBytes
 
     INWAV:  cpu time    0.0000: real time    0.0004
 Broyden mixing: mesh for mixing (old mesh)
   NGX = 61   NGY = 35   NGZ = 73
  (NGX  =180   NGY  =108   NGZ  =224)
  gives a total of 155855 points

 initial charge density was supplied:
 charge density of overlapping atoms calculated
 number of electron     918.0000000 magnetization     112.0000000
 keeping initial charge density in first step


--------------------------------------------------------------------------------------------------------


 Maximum index for non-local projection operator         1699
 Maximum index for augmentation-charges          348 (set IRDMAX)


--------------------------------------------------------------------------------------------------------


 First call to EWALD:  gamma=   0.121
 Maximum number of real-space cells 3x 4x 2
 Maximum number of reciprocal cells 3x 2x 4

    FEWALD:  cpu time    0.0039: real time    0.0040


--------------------------------------- Iteration      1(   1)  ---------------------------------------


    POTLOK:  cpu time    0.1986: real time    0.2182
    SETDIJ:  cpu time    0.0225: real time    0.0294
     EDDAV:  cpu time   40.3476: real time   40.4365
       DOS:  cpu time    0.0027: real time    0.0047
    --------------------------------------------
      LOOP:  cpu time   40.5713: real time   40.6888

 eigenvalue-minimisations  : 12480
 total energy-change (2. order) : 0.6903719E+04  (-0.3667592E+05)
 number of electron     918.0000000 magnetization     112.0000000
 augmentation part      918.0000000 magnetization     112.0000000

 DIPCOR: dipole corrections for dipol
 direction  3 min pos   148,
 dipolmoment           0.000000      0.000000     -0.000218 electrons x Angstroem
 Tr[quadrupol]    -31560.027948

 energy correction for charged system         0.000000 eV
 dipol+quadrupol energy correction           -0.000000 eV
 added-field ion interaction         -0.010345 eV  (added to PSCEN)


 Free energy of the ion-electron system (eV)
  ---------------------------------------------------
  alpha Z        PSCENC =      1338.30837905
  Ewald energy   TEWEN  =    328610.40289388
  -Hartree energ DENC   =   -419077.86425504
  -exchange      EXHF   =         0.00000000
  -V(xc)+E(xc)   XCENC  =      2928.29383730
  PAW double counting   =     83372.66927498   -88999.92081612
  entropy T*S    EENTRO =        -0.02643796
  eigenvalues    EBANDS =      4831.99271480
  atomic energy  EATOM  =     93899.86388478
  Solvation  Ediel_sol  =         0.00000000
  ---------------------------------------------------
  free energy    TOTEN  =      6903.71947567 eV

  energy without entropy =     6903.74591363  energy(sigma->0) =     6903.73269465


--------------------------------------------------------------------------------------------------------




--------------------------------------- Iteration      1(   2)  ---------------------------------------


     EDDAV:  cpu time   40.6561: real time   40.6735
       DOS:  cpu time    0.0038: real time    0.0038
    --------------------------------------------
      LOOP:  cpu time   40.6598: real time   40.6772

 eigenvalue-minimisations  : 12480
 total energy-change (2. order) :-0.6664770E+04  (-0.6262803E+04)
 number of electron     918.0000000 magnetization     112.0000000
 augmentation part      918.0000000 magnetization     112.0000000

 DIPCOR: dipole corrections for dipol
 direction  3 min pos   148,
 dipolmoment           0.000000      0.000000     -0.000218 electrons x Angstroem
 Tr[quadrupol]    -31560.027948

 energy correction for charged system         0.000000 eV
 dipol+quadrupol energy correction           -0.000000 eV
 added-field ion interaction         -0.010345 eV  (added to PSCEN)


 Free energy of the ion-electron system (eV)
  ---------------------------------------------------
  alpha Z        PSCENC =      1338.30837905
  Ewald energy   TEWEN  =    328610.40289388
  -Hartree energ DENC   =   -419077.86425504
  -exchange      EXHF   =         0.00000000
  -V(xc)+E(xc)   XCENC  =      2928.29383730
  PAW double counting   =     83372.66927498   -88999.92081612
  entropy T*S    EENTRO =        -0.05096628
  eigenvalues    EBANDS =     -1832.75266994
  atomic energy  EATOM  =     93899.86388478
  Solvation  Ediel_sol  =         0.00000000
  ---------------------------------------------------
  free energy    TOTEN  =       238.94956261 eV

  energy without entropy =      239.00052889  energy(sigma->0) =      238.97504575


--------------------------------------------------------------------------------------------------------




--------------------------------------- Iteration      1(   3)  ---------------------------------------


     EDDAV:  cpu time   54.5236: real time   54.5666
       DOS:  cpu time    0.0030: real time    0.0030
    --------------------------------------------
      LOOP:  cpu time   54.5265: real time   54.5696

 eigenvalue-minimisations  : 17712
 total energy-change (2. order) :-0.8359689E+03  (-0.7467968E+03)
 number of electron     918.0000000 magnetization     112.0000000
 augmentation part      918.0000000 magnetization     112.0000000

 DIPCOR: dipole corrections for dipol
 direction  3 min pos   148,
 dipolmoment           0.000000      0.000000     -0.000218 electrons x Angstroem
 Tr[quadrupol]    -31560.027948

 energy correction for charged system         0.000000 eV
 dipol+quadrupol energy correction           -0.000000 eV
 added-field ion interaction         -0.010345 eV  (added to PSCEN)


 Free energy of the ion-electron system (eV)
  ---------------------------------------------------
  alpha Z        PSCENC =      1338.30837905
  Ewald energy   TEWEN  =    328610.40289388
  -Hartree energ DENC   =   -419077.86425504
  -exchange      EXHF   =         0.00000000
  -V(xc)+E(xc)   XCENC  =      2928.29383730
  PAW double counting   =     83372.66927498   -88999.92081612
  entropy T*S    EENTRO =        -0.07196164
  eigenvalues    EBANDS =     -2668.70060096
  atomic energy  EATOM  =     93899.86388478
  Solvation  Ediel_sol  =         0.00000000
  ---------------------------------------------------
  free energy    TOTEN  =      -597.01936378 eV

  energy without entropy =     -596.94740214  energy(sigma->0) =     -596.98338296


--------------------------------------------------------------------------------------------------------




--------------------------------------- Iteration      1(   4)  ---------------------------------------


     EDDAV:  cpu time   49.5874: real time   49.6272
       DOS:  cpu time    0.0033: real time    0.0033
    --------------------------------------------
      LOOP:  cpu time   49.5907: real time   49.6305

 eigenvalue-minimisations  : 15792
 total energy-change (2. order) :-0.5703101E+02  (-0.5575373E+02)
 number of electron     918.0000000 magnetization     112.0000000
 augmentation part      918.0000000 magnetization     112.0000000

 DIPCOR: dipole corrections for dipol
 direction  3 min pos   148,
 dipolmoment           0.000000      0.000000     -0.000218 electrons x Angstroem
 Tr[quadrupol]    -31560.027948

 energy correction for charged system         0.000000 eV
 dipol+quadrupol energy correction           -0.000000 eV
 added-field ion interaction         -0.010345 eV  (added to PSCEN)


 Free energy of the ion-electron system (eV)
  ---------------------------------------------------
  alpha Z        PSCENC =      1338.30837905
  Ewald energy   TEWEN  =    328610.40289388
  -Hartree energ DENC   =   -419077.86425504
  -exchange      EXHF   =         0.00000000
  -V(xc)+E(xc)   XCENC  =      2928.29383730
  PAW double counting   =     83372.66927498   -88999.92081612
  entropy T*S    EENTRO =        -0.07205309
  eigenvalues    EBANDS =     -2725.73152085
  atomic energy  EATOM  =     93899.86388478
  Solvation  Ediel_sol  =         0.00000000
  ---------------------------------------------------
  free energy    TOTEN  =      -654.05037512 eV

  energy without entropy =     -653.97832203  energy(sigma->0) =     -654.01434858


--------------------------------------------------------------------------------------------------------




--------------------------------------- Iteration      1(   5)  ---------------------------------------


     EDDAV:  cpu time   46.1250: real time   46.1585
       DOS:  cpu time    0.0033: real time    0.0033
    --------------------------------------------
      LOOP:  cpu time   46.1284: real time   46.1618

 eigenvalue-minimisations  : 14064
 total energy-change (2. order) :-0.1364065E+01  (-0.1358610E+01)
 number of electron     918.0000000 magnetization     112.0000000
 augmentation part      918.0000000 magnetization     112.0000000

 DIPCOR: dipole corrections for dipol
 direction  3 min pos   148,
 dipolmoment           0.000000      0.000000     -0.000218 electrons x Angstroem
 Tr[quadrupol]    -31560.027948

 energy correction for charged system         0.000000 eV
 dipol+quadrupol energy correction           -0.000000 eV
 added-field ion interaction         -0.010345 eV  (added to PSCEN)


 Free energy of the ion-electron system (eV)
  ---------------------------------------------------
  alpha Z        PSCENC =      1338.30837905
  Ewald energy   TEWEN  =    328610.40289388
  -Hartree energ DENC   =   -419077.86425504
  -exchange      EXHF   =         0.00000000
  -V(xc)+E(xc)   XCENC  =      2928.29383730
  PAW double counting   =     83372.66927498   -88999.92081612
  entropy T*S    EENTRO =        -0.07235192
  eigenvalues    EBANDS =     -2727.09528712
  atomic energy  EATOM  =     93899.86388478
  Solvation  Ediel_sol  =         0.00000000
  ---------------------------------------------------
  free energy    TOTEN  =      -655.41444022 eV

  energy without entropy =     -655.34208830  energy(sigma->0) =     -655.37826426


--------------------------------------------------------------------------------------------------------




--------------------------------------- Iteration      1(   6)  ---------------------------------------


     EDDAV:  cpu time   54.6828: real time   54.7197
       DOS:  cpu time    0.0031: real time    0.0031
    --------------------------------------------
      LOOP:  cpu time   54.6858: real time   54.7228

 eigenvalue-minimisations  : 17760
 total energy-change (2. order) :-0.6722672E-01  (-0.6721692E-01)
 number of electron     918.0000000 magnetization     112.0000000
 augmentation part      918.0000000 magnetization     112.0000000

 DIPCOR: dipole corrections for dipol
 direction  3 min pos   148,
 dipolmoment           0.000000      0.000000     -0.000218 electrons x Angstroem
 Tr[quadrupol]    -31560.027948

 energy correction for charged system         0.000000 eV
 dipol+quadrupol energy correction           -0.000000 eV
 added-field ion interaction         -0.010345 eV  (added to PSCEN)


 Free energy of the ion-electron system (eV)
  ---------------------------------------------------
  alpha Z        PSCENC =      1338.30837905
  Ewald energy   TEWEN  =    328610.40289388
  -Hartree energ DENC   =   -419077.86425504
  -exchange      EXHF   =         0.00000000
  -V(xc)+E(xc)   XCENC  =      2928.29383730
  PAW double counting   =     83372.66927498   -88999.92081612
  entropy T*S    EENTRO =        -0.07235571
  eigenvalues    EBANDS =     -2727.16251005
  atomic energy  EATOM  =     93899.86388478
  Solvation  Ediel_sol  =         0.00000000
  ---------------------------------------------------
  free energy    TOTEN  =      -655.48166694 eV

  energy without entropy =     -655.40931123  energy(sigma->0) =     -655.44548908


--------------------------------------------------------------------------------------------------------




--------------------------------------- Iteration      1(   7)  ---------------------------------------


     EDDAV:  cpu time   51.1368: real time   51.1794
       DOS:  cpu time    0.0032: real time    0.0032
    CHARGE:  cpu time    1.7602: real time    1.7614
    MIXING:  cpu time    0.0045: real time    0.0050
    --------------------------------------------
      LOOP:  cpu time   52.9047: real time   52.9490

 eigenvalue-minimisations  : 16416
 total energy-change (2. order) :-0.1808945E-02  (-0.1808858E-02)
 number of electron     918.0001308 magnetization     107.1580659
 augmentation part      475.3308509 magnetization      93.3274272

 DIPCOR: dipole corrections for dipol
 direction  3 min pos   148,
 dipolmoment           0.000000      0.000000     -0.000218 electrons x Angstroem
 Tr[quadrupol]    -31560.027948

 energy correction for charged system         0.000000 eV
 dipol+quadrupol energy correction           -0.000000 eV
 added-field ion interaction         -0.010345 eV  (added to PSCEN)


 Broyden mixing:
  rms(total) = 0.95432E+01    rms(broyden)= 0.95423E+01
  rms(prec ) = 0.10019E+02
  weight for this iteration     100.00

 Free energy of the ion-electron system (eV)
  ---------------------------------------------------
  alpha Z        PSCENC =      1338.30837905
  Ewald energy   TEWEN  =    328610.40289388
  -Hartree energ DENC   =   -419077.86425504
  -exchange      EXHF   =         0.00000000
  -V(xc)+E(xc)   XCENC  =      2928.29383730
  PAW double counting   =     83372.66927498   -88999.92081612
  entropy T*S    EENTRO =        -0.07235576
  eigenvalues    EBANDS =     -2727.16431895
  atomic energy  EATOM  =     93899.86388478
  Solvation  Ediel_sol  =         0.00000000
  ---------------------------------------------------
  free energy    TOTEN  =      -655.48347588 eV

  energy without entropy =     -655.41112012  energy(sigma->0) =     -655.44729800


--------------------------------------------------------------------------------------------------------




--------------------------------------- Iteration      1(   8)  ---------------------------------------


    POTLOK:  cpu time    0.1711: real time    0.1718
    SETDIJ:  cpu time    0.0222: real time    0.0222
    EDDIAG:  cpu time    8.0093: real time    8.0174
  RMM-DIIS:  cpu time   21.3209: real time   21.3290
    ORTHCH:  cpu time    4.0129: real time    4.0143
       DOS:  cpu time    0.0014: real time    0.0014
    CHARGE:  cpu time    1.7442: real time    1.7449
    MIXING:  cpu time    0.0045: real time    0.0098
    --------------------------------------------
      LOOP:  cpu time   35.2864: real time   35.3108

 eigenvalue-minimisations  : 12532
 total energy-change (2. order) : 0.2533091E+02  (-0.1097496E+03)
 number of electron     918.0001672 magnetization     104.1489713
 augmentation part      562.5283286 magnetization      96.5471140

 DIPCOR: dipole corrections for dipol
 direction  3 min pos   144,
 dipolmoment           0.000000      0.000000      1.492037 electrons x Angstroem
 Tr[quadrupol]    -31562.482423

 energy correction for charged system         0.000000 eV
 dipol+quadrupol energy correction           -0.063960 eV
 added-field ion interaction         41.160581 eV  (added to PSCEN)


 Broyden mixing:
  rms(total) = 0.12536E+02    rms(broyden)= 0.12535E+02
  rms(prec ) = 0.13563E+02
  weight for this iteration     100.00

 eigenvalues of (default mixing * dielectric matrix)
  average eigenvalue GAMMA=   0.3578
  0.3578

 Free energy of the ion-electron system (eV)
  ---------------------------------------------------
  alpha Z        PSCENC =      1379.41534425
  Ewald energy   TEWEN  =    328610.40289388
  -Hartree energ DENC   =   -417168.99535633
  -exchange      EXHF   =         0.00000000
  -V(xc)+E(xc)   XCENC  =      2881.23491770
  PAW double counting   =     88846.72047346   -94088.91772664
  entropy T*S    EENTRO =        -0.05769513
  eigenvalues    EBANDS =     -4989.81930420
  atomic energy  EATOM  =     93899.86388478
  Solvation  Ediel_sol  =         0.00000000
  ---------------------------------------------------
  free energy    TOTEN  =      -630.15256823 eV

  energy without entropy =     -630.09487311  energy(sigma->0) =     -630.12372067


--------------------------------------------------------------------------------------------------------




--------------------------------------- Iteration      1(   9)  ---------------------------------------


    POTLOK:  cpu time    0.1720: real time    0.1724
    SETDIJ:  cpu time    0.0221: real time    0.0221
    EDDIAG:  cpu time    8.1186: real time    8.1247
  RMM-DIIS:  cpu time   20.8641: real time   20.9238
    ORTHCH:  cpu time    2.2295: real time    2.2301
       DOS:  cpu time    0.0013: real time    0.0013
    CHARGE:  cpu time    1.7489: real time    1.7510
    MIXING:  cpu time    0.0044: real time    0.0045
    --------------------------------------------
      LOOP:  cpu time   33.1608: real time   33.2300

 eigenvalue-minimisations  : 12495
 total energy-change (2. order) :-0.2142798E+02  (-0.3160260E+02)
 number of electron     918.0001212 magnetization     102.0429479
 augmentation part      524.9622444 magnetization      89.7048620

 DIPCOR: dipole corrections for dipol
 direction  3 min pos   145,
 dipolmoment           0.000000      0.000000     -1.698947 electrons x Angstroem
 Tr[quadrupol]    -31562.554772

 energy correction for charged system         0.000000 eV
 dipol+quadrupol energy correction           -0.082930 eV
 added-field ion interaction        -55.308151 eV  (added to PSCEN)


 Broyden mixing:
  rms(total) = 0.14085E+02    rms(broyden)= 0.14085E+02
  rms(prec ) = 0.16993E+02
  weight for this iteration     100.00

 eigenvalues of (default mixing * dielectric matrix)
  average eigenvalue GAMMA=   0.3264
  0.4646  0.1882

 Free energy of the ion-electron system (eV)
  ---------------------------------------------------
  alpha Z        PSCENC =      1282.92764252
  Ewald energy   TEWEN  =    328610.40289388
  -Hartree energ DENC   =   -417858.53708525
  -exchange      EXHF   =         0.00000000
  -V(xc)+E(xc)   XCENC  =      2902.25446134
  PAW double counting   =     91486.44973756   -96970.30482285
  entropy T*S    EENTRO =        -0.06486826
  eigenvalues    EBANDS =     -4004.57239656
  atomic energy  EATOM  =     93899.86388478
  Solvation  Ediel_sol  =         0.00000000
  ---------------------------------------------------
  free energy    TOTEN  =      -651.58055285 eV

  energy without entropy =     -651.51568459  energy(sigma->0) =     -651.54811872


--------------------------------------------------------------------------------------------------------




--------------------------------------- Iteration      1(  10)  ---------------------------------------


    POTLOK:  cpu time    0.1724: real time    0.1724
    SETDIJ:  cpu time    0.0221: real time    0.0221
    EDDIAG:  cpu time    8.1274: real time    8.1314
  RMM-DIIS:  cpu time   20.8675: real time   20.8843
    ORTHCH:  cpu time    2.3350: real time    2.3360
       DOS:  cpu time    0.0014: real time    0.0014
    CHARGE:  cpu time    1.7469: real time    1.7474
    MIXING:  cpu time    0.0047: real time    0.0047
    --------------------------------------------
      LOOP:  cpu time   33.2773: real time   33.2998

 eigenvalue-minimisations  : 12518
 total energy-change (2. order) :-0.3233013E+01  (-0.1156358E+02)
 number of electron     918.0001813 magnetization     100.5181976
 augmentation part      518.0538524 magnetization      86.1074680

 DIPCOR: dipole corrections for dipol
 direction  3 min pos   140,
 dipolmoment           0.000000      0.000000      1.303000 electrons x Angstroem
 Tr[quadrupol]    -31572.405879

 energy correction for charged system         0.000000 eV
 dipol+quadrupol energy correction           -0.048780 eV
 added-field ion interaction         10.054897 eV  (added to PSCEN)


 Broyden mixing:
  rms(total) = 0.14539E+02    rms(broyden)= 0.14539E+02
  rms(prec ) = 0.17872E+02
  weight for this iteration     100.00

 eigenvalues of (default mixing * dielectric matrix)
  average eigenvalue GAMMA=   0.2753
  0.5053  0.2218  0.0987

 Free energy of the ion-electron system (eV)
  ---------------------------------------------------
  alpha Z        PSCENC =      1348.32484140
  Ewald energy   TEWEN  =    328610.40289388
  -Hartree energ DENC   =   -418264.45561004
  -exchange      EXHF   =         0.00000000
  -V(xc)+E(xc)   XCENC  =      2906.13428757
  PAW double counting   =     92789.31849190   -98358.43658920
  entropy T*S    EENTRO =        -0.05781063
  eigenvalues    EBANDS =     -3585.90795506
  atomic energy  EATOM  =     93899.86388478
  Solvation  Ediel_sol  =         0.00000000
  ---------------------------------------------------
  free energy    TOTEN  =      -654.81356541 eV

  energy without entropy =     -654.75575478  energy(sigma->0) =     -654.78466010


--------------------------------------------------------------------------------------------------------




--------------------------------------- Iteration      1(  11)  ---------------------------------------


    POTLOK:  cpu time    0.1720: real time    0.1743
    SETDIJ:  cpu time    0.0222: real time    0.0222
    EDDIAG:  cpu time    8.0291: real time    8.0347
  RMM-DIIS:  cpu time   20.8616: real time   20.9118
    ORTHCH:  cpu time    2.2203: real time    2.2217
       DOS:  cpu time    0.0013: real time    0.0013
    CHARGE:  cpu time    1.7347: real time    1.7355
    MIXING:  cpu time    0.0048: real time    0.0048
    --------------------------------------------
      LOOP:  cpu time   33.0462: real time   33.1065

 eigenvalue-minimisations  : 12504
 total energy-change (2. order) : 0.5113963E+02  (-0.7571791E+01)
 number of electron     918.0001326 magnetization      99.2068568
 augmentation part      521.7743843 magnetization      85.8999193

 DIPCOR: dipole corrections for dipol
 direction  3 min pos   146,
 dipolmoment           0.000000      0.000000     -1.723580 electrons x Angstroem
 Tr[quadrupol]    -31571.398966

 energy correction for charged system         0.000000 eV
 dipol+quadrupol energy correction           -0.085352 eV
 added-field ion interaction        -64.671994 eV  (added to PSCEN)


 Broyden mixing:
  rms(total) = 0.12915E+02    rms(broyden)= 0.12914E+02
  rms(prec ) = 0.16091E+02
  weight for this iteration     100.00

 eigenvalues of (default mixing * dielectric matrix)
  average eigenvalue GAMMA=   0.2395
  0.4760  0.2810  0.1278  0.0734

 Free energy of the ion-electron system (eV)
  ---------------------------------------------------
  alpha Z        PSCENC =      1273.56137776
  Ewald energy   TEWEN  =    328610.40289388
  -Hartree energ DENC   =   -418381.55345790
  -exchange      EXHF   =         0.00000000
  -V(xc)+E(xc)   XCENC  =      2903.98327382
  PAW double counting   =     93535.48941542   -99143.25693692
  entropy T*S    EENTRO =        -0.05299764
  eigenvalues    EBANDS =     -3302.11139333
  atomic energy  EATOM  =     93899.86388478
  Solvation  Ediel_sol  =         0.00000000
  ---------------------------------------------------
  free energy    TOTEN  =      -603.67394015 eV

  energy without entropy =     -603.62094251  energy(sigma->0) =     -603.64744133


--------------------------------------------------------------------------------------------------------




--------------------------------------- Iteration      1(  12)  ---------------------------------------


    POTLOK:  cpu time    0.1708: real time    0.1720
    SETDIJ:  cpu time    0.0222: real time    0.0222
    EDDIAG:  cpu time    8.0089: real time    8.0150
  RMM-DIIS:  cpu time   20.9584: real time   20.9775
    ORTHCH:  cpu time    2.2282: real time    2.2299
       DOS:  cpu time    0.0013: real time    0.0013
    CHARGE:  cpu time    1.7483: real time    1.7504
    MIXING:  cpu time    0.0050: real time    0.0050
    --------------------------------------------
      LOOP:  cpu time   33.1431: real time   33.1732

 eigenvalue-minimisations  : 12520
 total energy-change (2. order) : 0.4198035E+02  (-0.5544283E+01)
 number of electron     918.0001508 magnetization      96.4188090
 augmentation part      523.2767201 magnetization      78.3039917

 DIPCOR: dipole corrections for dipol
 direction  3 min pos   149,
 dipolmoment           0.000000      0.000000     -0.974530 electrons x Angstroem
 Tr[quadrupol]    -31573.945665

 energy correction for charged system         0.000000 eV
 dipol+quadrupol energy correction           -0.027286 eV
 added-field ion interaction        -51.089216 eV  (added to PSCEN)


 Broyden mixing:
  rms(total) = 0.84846E+01    rms(broyden)= 0.84837E+01
  rms(prec ) = 0.95125E+01
  weight for this iteration     100.00

 eigenvalues of (default mixing * dielectric matrix)
  average eigenvalue GAMMA=   0.2825
  0.5503  0.5503  0.1215  0.1215  0.0692

 Free energy of the ion-electron system (eV)
  ---------------------------------------------------
  alpha Z        PSCENC =      1287.20222178
  Ewald energy   TEWEN  =    328610.40289388
  -Hartree energ DENC   =   -418463.09111005
  -exchange      EXHF   =         0.00000000
  -V(xc)+E(xc)   XCENC  =      2905.52411749
  PAW double counting   =     94039.11132933   -99667.73671567
  entropy T*S    EENTRO =        -0.06460833
  eigenvalues    EBANDS =     -3172.90560539
  atomic energy  EATOM  =     93899.86388478
  Solvation  Ediel_sol  =         0.00000000
  ---------------------------------------------------
  free energy    TOTEN  =      -561.69359219 eV

  energy without entropy =     -561.62898386  energy(sigma->0) =     -561.66128803


--------------------------------------------------------------------------------------------------------




--------------------------------------- Iteration      1(  13)  ---------------------------------------


    POTLOK:  cpu time    0.1729: real time    0.1730
    SETDIJ:  cpu time    0.0222: real time    0.0223
    EDDIAG:  cpu time    8.0306: real time    8.0644
  RMM-DIIS:  cpu time   20.9574: real time   20.9771
    ORTHCH:  cpu time    2.2148: real time    2.2155
       DOS:  cpu time    0.0013: real time    0.0013
    CHARGE:  cpu time    1.7232: real time    1.7239
    MIXING:  cpu time    0.0052: real time    0.0052
    --------------------------------------------
      LOOP:  cpu time   33.1277: real time   33.1828

 eigenvalue-minimisations  : 12500
 total energy-change (2. order) :-0.3157424E+02  (-0.8721703E+01)
 number of electron     918.0001458 magnetization      91.4215072
 augmentation part      524.0971532 magnetization      77.2959439

 DIPCOR: dipole corrections for dipol
 direction  3 min pos   152,
 dipolmoment           0.000000      0.000000     -1.268727 electrons x Angstroem
 Tr[quadrupol]    -31573.286815

 energy correction for charged system         0.000000 eV
 dipol+quadrupol energy correction           -0.046247 eV
 added-field ion interaction        -85.419644 eV  (added to PSCEN)


 Broyden mixing:
  rms(total) = 0.13103E+02    rms(broyden)= 0.13102E+02
  rms(prec ) = 0.15544E+02
  weight for this iteration     100.00

 eigenvalues of (default mixing * dielectric matrix)
  average eigenvalue GAMMA=   0.3240
  0.7526  0.7526  0.1313  0.1313  0.1087  0.0672

 Free energy of the ion-electron system (eV)
  ---------------------------------------------------
  alpha Z        PSCENC =      1252.85283186
  Ewald energy   TEWEN  =    328610.40289388
  -Hartree energ DENC   =   -418460.12763352
  -exchange      EXHF   =         0.00000000
  -V(xc)+E(xc)   XCENC  =      2904.27109504
  PAW double counting   =     95238.70445067  -100902.15780722
  entropy T*S    EENTRO =        -0.03560258
  eigenvalues    EBANDS =     -3137.04194805
  atomic energy  EATOM  =     93899.86388478
  Solvation  Ediel_sol  =         0.00000000
  ---------------------------------------------------
  free energy    TOTEN  =      -593.26783515 eV

  energy without entropy =     -593.23223257  energy(sigma->0) =     -593.25003386


--------------------------------------------------------------------------------------------------------




--------------------------------------- Iteration      1(  14)  ---------------------------------------


    POTLOK:  cpu time    0.1723: real time    0.1728
    SETDIJ:  cpu time    0.0220: real time    0.0222
    EDDIAG:  cpu time    8.0302: real time    8.0360
  RMM-DIIS:  cpu time   20.9601: real time   20.9765
    ORTHCH:  cpu time    2.2177: real time    2.2196
       DOS:  cpu time    0.0014: real time    0.0014
    CHARGE:  cpu time    1.7396: real time    1.7576
    MIXING:  cpu time    0.0054: real time    0.0054
    --------------------------------------------
      LOOP:  cpu time   33.1487: real time   33.1915

 eigenvalue-minimisations  : 12509
 total energy-change (2. order) : 0.4903268E+02  (-0.7784022E+01)
 number of electron     918.0001550 magnetization      89.1617910
 augmentation part      526.0102908 magnetization      69.8289515

 DIPCOR: dipole corrections for dipol
 direction  3 min pos   143,
 dipolmoment           0.000000      0.000000     -0.668632 electrons x Angstroem
 Tr[quadrupol]    -31576.437823

 energy correction for charged system         0.000000 eV
 dipol+quadrupol energy correction           -0.012845 eV
 added-field ion interaction        -15.123999 eV  (added to PSCEN)


 Broyden mixing:
  rms(total) = 0.78640E+01    rms(broyden)= 0.78633E+01
  rms(prec ) = 0.91274E+01
  weight for this iteration     100.00

 eigenvalues of (default mixing * dielectric matrix)
  average eigenvalue GAMMA=   0.3424
  1.0091  0.7093  0.2765  0.1243  0.1243  0.0881  0.0652

 Free energy of the ion-electron system (eV)
  ---------------------------------------------------
  alpha Z        PSCENC =      1323.18188021
  Ewald energy   TEWEN  =    328610.40289388
  -Hartree energ DENC   =   -418451.59537211
  -exchange      EXHF   =         0.00000000
  -V(xc)+E(xc)   XCENC  =      2909.38112749
  PAW double counting   =     97041.99495284  -102755.48880012
  entropy T*S    EENTRO =        -0.06692086
  eigenvalues    EBANDS =     -3121.90879912
  atomic energy  EATOM  =     93899.86388478
  Solvation  Ediel_sol  =         0.00000000
  ---------------------------------------------------
  free energy    TOTEN  =      -544.23515302 eV

  energy without entropy =     -544.16823216  energy(sigma->0) =     -544.20169259


--------------------------------------------------------------------------------------------------------




--------------------------------------- Iteration      1(  15)  ---------------------------------------


    POTLOK:  cpu time    0.1741: real time    0.1741
    SETDIJ:  cpu time    0.0222: real time    0.0222
    EDDIAG:  cpu time    8.0042: real time    8.0097
  RMM-DIIS:  cpu time   20.9243: real time   20.9427
    ORTHCH:  cpu time    2.2215: real time    2.2221
       DOS:  cpu time    0.0014: real time    0.0014
    CHARGE:  cpu time    1.7469: real time    1.7492
    MIXING:  cpu time    0.0057: real time    0.0057
    --------------------------------------------
      LOOP:  cpu time   33.1002: real time   33.1271

 eigenvalue-minimisations  : 12503
 total energy-change (2. order) : 0.1698135E+01  (-0.3589350E+01)
 number of electron     918.0001454 magnetization      87.8998867
 augmentation part      525.2804468 magnetization      69.3871367

 DIPCOR: dipole corrections for dipol
 direction  3 min pos   147,
 dipolmoment           0.000000      0.000000     -0.957221 electrons x Angstroem
 Tr[quadrupol]    -31576.723594

 energy correction for charged system         0.000000 eV
 dipol+quadrupol energy correction           -0.026325 eV
 added-field ion interaction        -40.671780 eV  (added to PSCEN)


 Broyden mixing:
  rms(total) = 0.82916E+01    rms(broyden)= 0.82912E+01
  rms(prec ) = 0.98966E+01
  weight for this iteration     100.00

 eigenvalues of (default mixing * dielectric matrix)
  average eigenvalue GAMMA=   0.3390
  1.1170  0.7196  0.3608  0.1308  0.1308  0.0661  0.0935  0.0935

 Free energy of the ion-electron system (eV)
  ---------------------------------------------------
  alpha Z        PSCENC =      1297.62061828
  Ewald energy   TEWEN  =    328610.40289388
  -Hartree energ DENC   =   -418544.51115569
  -exchange      EXHF   =         0.00000000
  -V(xc)+E(xc)   XCENC  =      2908.61355277
  PAW double counting   =     97725.60150656  -103461.03710154
  entropy T*S    EENTRO =        -0.07139391
  eigenvalues    EBANDS =     -2979.01982334
  atomic energy  EATOM  =     93899.86388478
  Solvation  Ediel_sol  =         0.00000000
  ---------------------------------------------------
  free energy    TOTEN  =      -542.53701820 eV

  energy without entropy =     -542.46562429  energy(sigma->0) =     -542.50132125


--------------------------------------------------------------------------------------------------------




--------------------------------------- Iteration      1(  16)  ---------------------------------------


    POTLOK:  cpu time    0.1745: real time    0.1745
    SETDIJ:  cpu time    0.0221: real time    0.0221
    EDDIAG:  cpu time    8.0151: real time    8.0200
  RMM-DIIS:  cpu time   20.8576: real time   20.9086
    ORTHCH:  cpu time    2.2094: real time    2.2114
       DOS:  cpu time    0.0014: real time    0.0014
    CHARGE:  cpu time    1.7435: real time    1.7440
    MIXING:  cpu time    0.0060: real time    0.0060
    --------------------------------------------
      LOOP:  cpu time   33.0296: real time   33.0881

 eigenvalue-minimisations  : 12501
 total energy-change (2. order) : 0.7146878E+00  (-0.1619137E+01)
 number of electron     918.0001444 magnetization      85.8710759
 augmentation part      523.8871011 magnetization      66.5474271

 DIPCOR: dipole corrections for dipol
 direction  3 min pos   149,
 dipolmoment           0.000000      0.000000     -1.197220 electrons x Angstroem
 Tr[quadrupol]    -31578.245271

 energy correction for charged system         0.000000 eV
 dipol+quadrupol energy correction           -0.041181 eV
 added-field ion interaction        -62.763628 eV  (added to PSCEN)


 Broyden mixing:
  rms(total) = 0.80537E+01    rms(broyden)= 0.80533E+01
  rms(prec ) = 0.98063E+01
  weight for this iteration     100.00

 eigenvalues of (default mixing * dielectric matrix)
  average eigenvalue GAMMA=   0.3360
  1.2272  0.7370  0.4386  0.1370  0.1370  0.1177  0.1038  0.0672  0.0585

 Free energy of the ion-electron system (eV)
  ---------------------------------------------------
  alpha Z        PSCENC =      1275.51391458
  Ewald energy   TEWEN  =    328610.40289388
  -Hartree energ DENC   =   -418630.74152450
  -exchange      EXHF   =         0.00000000
  -V(xc)+E(xc)   XCENC  =      2909.31667611
  PAW double counting   =     98021.87725017  -103768.01439795
  entropy T*S    EENTRO =        -0.07244579
  eigenvalues    EBANDS =     -2859.96858167
  atomic energy  EATOM  =     93899.86388478
  Solvation  Ediel_sol  =         0.00000000
  ---------------------------------------------------
  free energy    TOTEN  =      -541.82233039 eV

[...]
 direction  3 min pos   149,
 dipolmoment           0.000000      0.000000     -1.041881 electrons x Angstroem
 Tr[quadrupol]    -31548.211965

 energy correction for charged system         0.000000 eV
 dipol+quadrupol energy correction           -0.031188 eV
 added-field ion interaction        -54.881973 eV  (added to PSCEN)


 eigenvalues of (default mixing * dielectric matrix)
  average eigenvalue GAMMA=   0.4573
  2.0761  0.7189  0.1300  0.0975  0.0718  0.0554  0.0514

  free energy =  -0.591933209701E+03  energy without entropy=  -0.591865103762E+03


--------------------------------------------------------------------------------------------------------




--------------------------------------- Iteration     81(   9)  ---------------------------------------


    POTLOK:  cpu time    0.2850: real time    0.3157
    SETDIJ:  cpu time    0.0362: real time    0.0363
    EDDIAG:  cpu time    9.4209: real time    9.4286
  RMM-DIIS:  cpu time   14.1676: real time   14.1826
    ORTHCH:  cpu time    2.2277: real time    2.2289
       DOS:  cpu time    0.0013: real time    0.0013
    CHARGE:  cpu time    1.8303: real time    1.8319
    MIXING:  cpu time    0.0057: real time    0.0057
    --------------------------------------------
      LOOP:  cpu time   27.9747: real time   28.0310

 eigenvalue-minimisations  :  8219
 total energy-change (2. order) : 0.3390678E-04  (-0.2680765E-05)
 number of electron     918.0002501 magnetization      58.1252694
 augmentation part      522.7245371 magnetization      54.3320013

 DIPCOR: dipole corrections for dipol
 direction  3 min pos   149,
 dipolmoment           0.000000      0.000000     -1.042083 electrons x Angstroem
 Tr[quadrupol]    -31548.211838

 energy correction for charged system         0.000000 eV
 dipol+quadrupol energy correction           -0.031200 eV
 added-field ion interaction        -54.892619 eV  (added to PSCEN)


 eigenvalues of (default mixing * dielectric matrix)
  average eigenvalue GAMMA=   0.4363
  2.2048  0.7254  0.1776  0.1187  0.0883  0.0688  0.0513  0.0555

  free energy =  -0.591933175794E+03  energy without entropy=  -0.591865079041E+03


--------------------------------------------------------------------------------------------------------




--------------------------------------- Iteration     81(  10)  ---------------------------------------


    POTLOK:  cpu time    0.1732: real time    0.1734
    SETDIJ:  cpu time    0.0222: real time    0.0222
    EDDIAG:  cpu time    7.9996: real time    8.0050
  RMM-DIIS:  cpu time   12.6104: real time   12.6274
    ORTHCH:  cpu time    2.2142: real time    2.2156
       DOS:  cpu time    0.0013: real time    0.0013
    --------------------------------------------
      LOOP:  cpu time   23.0209: real time   23.0450

 eigenvalue-minimisations  :  7265
 total energy-change (2. order) :-0.4983158E-06  (-0.9511369E-06)
 number of electron     918.0002501 magnetization      58.1252694
 augmentation part      522.7245371 magnetization      54.3320013

 DIPCOR: dipole corrections for dipol
 direction  3 min pos   149,
 dipolmoment           0.000000      0.000000     -1.042087 electrons x Angstroem
 Tr[quadrupol]    -31548.211713

 energy correction for charged system         0.000000 eV
 dipol+quadrupol energy correction           -0.031200 eV
 added-field ion interaction        -54.892839 eV  (added to PSCEN)


  free energy =  -0.591933176292E+03  energy without entropy=  -0.591865077729E+03


--------------------------------------------------------------------------------------------------------




------------------------ aborting loop because EDIFF is reached ----------------------------------------


    CHARGE:  cpu time    1.7728: real time    1.7758
    FORLOC:  cpu time    0.0499: real time    0.0500
    FORNL :  cpu time    7.0057: real time    7.0128
    STRESS:  cpu time   20.5283: real time   20.5449
    FORCOR:  cpu time    0.1715: real time    0.1723
    FORHAR:  cpu time    0.0569: real time    0.0569
    MIXING:  cpu time    0.0060: real time    0.0060
    OFIELD:  cpu time    0.0001: real time    0.0001

  Number of pair interactions contributing to vdW energy:  524424
  Edisp (eV):   -8.21103
    FORVDW:  cpu time    0.0661: real time    0.0661

  FORCE on cell =-STRESS in cart. coord.  units (eV):
  Direction    XX          YY          ZZ          XY          YZ          ZX
  --------------------------------------------------------------------------------------
  Alpha Z  1338.31872  1338.31872  1338.31872
  Ewald  379698.35075379917.11569************   183.46878  -620.54099   309.09490
  Hartree402936.16874403096.13972************    97.06893  -382.76808   312.86941
  E(xc)   -4922.02896 -4921.83594 -4936.07436     0.21784    -0.86405    -0.28939
  Local  ************************799834.55394  -268.51592   970.41816  -643.17608
  n-local  -866.27926  -857.45421  -922.31284    -1.08397    -4.16334    -0.70222
  augment 14796.96959 14793.92630 14881.82656    -3.58626     2.10714     3.15213
  Kinetic  7781.70236  7748.09386  7919.30108    -9.19093    35.86115    18.65569
  Fock        0.00000     0.00000     0.00000     0.00000     0.00000     0.00000
  vdW       -10.56260   -10.49500    -7.81549    -0.08694    -0.01650    -0.09126
  -------------------------------------------------------------------------------------
  Total     -44.60460   -43.30908    -2.86892    -1.70847     0.03350    -0.48682
  in kB     -22.57022   -21.91467    -1.45169    -0.86450     0.01695    -0.24633
  external pressure =      -15.31 kB  Pullay stress =        0.00 kB



--------------------------------------------------------------------------------------------------------



  FREE ENERGIE OF THE ION-ELECTRON SYSTEM (eV)
  ---------------------------------------------------
  free  energy   TOTEN  =      -600.14420628 eV

  energy  without entropy=     -600.07610772  energy(sigma->0) =     -600.11015700
 
 d Force = 0.8091936E-04[ 0.371E-05, 0.158E-03]  d Energy = 0.5467966E-04 0.262E-04
 d Force = 0.4342609E+00[ 0.434E+00, 0.434E+00]  d Ewald  = 0.4342617E+00-0.774E-06


--------------------------------------------------------------------------------------------------------


    POTLOK:  cpu time    0.1964: real time    0.1965


--------------------------------------------------------------------------------------------------------




--------------------------------------------------------------------------------------------------------


    WAVPRE:  cpu time    0.0450: real time    0.0465
    FEWALD:  cpu time    0.0025: real time    0.0025
    ORTHCH:  cpu time    4.4721: real time    4.4758
     LOOP+:  cpu time  346.9667: real time  347.4106


--------------------------------------- Iteration     82(   1)  ---------------------------------------


    POTLOK:  cpu time    0.1726: real time    0.1730
    SETDIJ:  cpu time    0.0222: real time    0.0222
     EDDAV:  cpu time   43.0696: real time   43.1095
       DOS:  cpu time    0.0065: real time    0.0065
    CHARGE:  cpu time    1.7654: real time    1.7669
    MIXING:  cpu time    0.0037: real time    0.0037
    --------------------------------------------
      LOOP:  cpu time   45.0399: real time   45.0817

 eigenvalue-minimisations  : 13440
 total energy-change (2. order) :-0.1165440E-03  (-0.1728199E-02)
 number of electron     918.0002501 magnetization      58.1251134
 augmentation part      522.7240500 magnetization      54.3317822

 DIPCOR: dipole corrections for dipol
 direction  3 min pos   149,
 dipolmoment           0.000000      0.000000     -1.042053 electrons x Angstroem
 Tr[quadrupol]    -31548.138069

 energy correction for charged system         0.000000 eV
 dipol+quadrupol energy correction           -0.031198 eV
 added-field ion interaction        -54.890920 eV  (added to PSCEN)


  free energy =  -0.591933292338E+03  energy without entropy=  -0.591865185518E+03


--------------------------------------------------------------------------------------------------------




--------------------------------------- Iteration     82(   2)  ---------------------------------------


    POTLOK:  cpu time    0.1747: real time    0.1751
    SETDIJ:  cpu time    0.0221: real time    0.0221
    EDDIAG:  cpu time    8.0527: real time    8.0612
  RMM-DIIS:  cpu time   20.9088: real time   20.9349
    ORTHCH:  cpu time    2.2157: real time    2.2172
       DOS:  cpu time    0.0013: real time    0.0013
    CHARGE:  cpu time    1.7710: real time    1.7734
    MIXING:  cpu time    0.0040: real time    0.0040
    --------------------------------------------
      LOOP:  cpu time   33.1504: real time   33.1891

 eigenvalue-minimisations  : 12504
 total energy-change (2. order) :-0.1384074E-02  (-0.7845154E-04)
 number of electron     918.0002501 magnetization      58.1251113
 augmentation part      522.7250796 magnetization      54.3323392

 DIPCOR: dipole corrections for dipol
 direction  3 min pos   149,
 dipolmoment           0.000000      0.000000     -1.041557 electrons x Angstroem
 Tr[quadrupol]    -31548.137995

 energy correction for charged system         0.000000 eV
 dipol+quadrupol energy correction           -0.031169 eV
 added-field ion interaction        -54.864772 eV  (added to PSCEN)


 eigenvalues of (default mixing * dielectric matrix)
  average eigenvalue GAMMA=   0.0598
  0.0598

  free energy =  -0.591934676412E+03  energy without entropy=  -0.591866612710E+03


--------------------------------------------------------------------------------------------------------




--------------------------------------- Iteration     82(   3)  ---------------------------------------


    POTLOK:  cpu time    0.1712: real time    0.1731
    SETDIJ:  cpu time    0.0222: real time    0.0223
    EDDIAG:  cpu time    8.0260: real time    8.0363
  RMM-DIIS:  cpu time   20.8741: real time   20.9048
    ORTHCH:  cpu time    2.2272: real time    2.2289
       DOS:  cpu time    0.0014: real time    0.0014
    CHARGE:  cpu time    1.7665: real time    1.7682
    MIXING:  cpu time    0.0042: real time    0.0042
    --------------------------------------------
      LOOP:  cpu time   33.0929: real time   33.1390

 eigenvalue-minimisations  : 12485
 total energy-change (2. order) : 0.1568493E-02  (-0.3349582E-04)
 number of electron     918.0002501 magnetization      58.1250815
 augmentation part      522.7251600 magnetization      54.3321199

 DIPCOR: dipole corrections for dipol
 direction  3 min pos   149,
 dipolmoment           0.000000      0.000000     -1.041802 electrons x Angstroem
 Tr[quadrupol]    -31548.137108

 energy correction for charged system         0.000000 eV
 dipol+quadrupol energy correction           -0.031183 eV
 added-field ion interaction        -54.877712 eV  (added to PSCEN)


 eigenvalues of (default mixing * dielectric matrix)
  average eigenvalue GAMMA=   0.1081
  0.1598  0.0564

  free energy =  -0.591933107919E+03  energy without entropy=  -0.591865023378E+03


--------------------------------------------------------------------------------------------------------




--------------------------------------- Iteration     82(   4)  ---------------------------------------


    POTLOK:  cpu time    0.1716: real time    0.1724
    SETDIJ:  cpu time    0.0222: real time    0.0222
    EDDIAG:  cpu time    8.0158: real time    8.0273
  RMM-DIIS:  cpu time   19.4321: real time   19.4596
    ORTHCH:  cpu time    2.2108: real time    2.2127
       DOS:  cpu time    0.0014: real time    0.0014
    CHARGE:  cpu time    1.7747: real time    1.7775
    MIXING:  cpu time    0.0045: real time    0.0045
    --------------------------------------------
      LOOP:  cpu time   31.6331: real time   31.6776

 eigenvalue-minimisations  : 11530
 total energy-change (2. order) :-0.2108270E-03  (-0.6783346E-05)
 number of electron     918.0002501 magnetization      58.1249958
 augmentation part      522.7251600 magnetization      54.3319814

 DIPCOR: dipole corrections for dipol
 direction  3 min pos   149,
 dipolmoment           0.000000      0.000000     -1.041561 electrons x Angstroem
 Tr[quadrupol]    -31548.137783

 energy correction for charged system         0.000000 eV
 dipol+quadrupol energy correction           -0.031169 eV
 added-field ion interaction        -54.864976 eV  (added to PSCEN)


 eigenvalues of (default mixing * dielectric matrix)
  average eigenvalue GAMMA=   0.2027
  0.4613  0.0559  0.0908

  free energy =  -0.591933318746E+03  energy without entropy=  -0.591865208682E+03


--------------------------------------------------------------------------------------------------------




--------------------------------------- Iteration     82(   5)  ---------------------------------------


    POTLOK:  cpu time    0.1718: real time    0.1732
    SETDIJ:  cpu time    0.0223: real time    0.0223
    EDDIAG:  cpu time    8.1351: real time    8.1458
  RMM-DIIS:  cpu time   14.3383: real time   14.3570
    ORTHCH:  cpu time    2.2552: real time    2.2577
       DOS:  cpu time    0.0014: real time    0.0014
    CHARGE:  cpu time    1.7728: real time    1.7748
    MIXING:  cpu time    0.0047: real time    0.0047
    --------------------------------------------
      LOOP:  cpu time   26.7016: real time   26.7368

 eigenvalue-minimisations  :  8386
 total energy-change (2. order) :-0.2878727E-04  (-0.2791022E-05)
 number of electron     918.0002501 magnetization      58.1249345
 augmentation part      522.7244129 magnetization      54.3315569

 DIPCOR: dipole corrections for dipol
 direction  3 min pos   149,
 dipolmoment           0.000000      0.000000     -1.042300 electrons x Angstroem
 Tr[quadrupol]    -31548.135771

 energy correction for charged system         0.000000 eV
 dipol+quadrupol energy correction           -0.031213 eV
 added-field ion interaction        -54.903915 eV  (added to PSCEN)


 eigenvalues of (default mixing * dielectric matrix)
  average eigenvalue GAMMA=   0.2490
  0.7486  0.1187  0.0558  0.0728

  free energy =  -0.591933347534E+03  energy without entropy=  -0.591865242698E+03


--------------------------------------------------------------------------------------------------------




--------------------------------------- Iteration     82(   6)  ---------------------------------------


    POTLOK:  cpu time    0.1716: real time    0.1722
    SETDIJ:  cpu time    0.0222: real time    0.0222
    EDDIAG:  cpu time    8.0098: real time    8.0226
  RMM-DIIS:  cpu time   12.7685: real time   12.7847
    ORTHCH:  cpu time    2.2196: real time    2.2219
       DOS:  cpu time    0.0013: real time    0.0013
    --------------------------------------------
      LOOP:  cpu time   23.1930: real time   23.2250

 eigenvalue-minimisations  :  7398
 total energy-change (2. order) : 0.9068463E-05  (-0.1859021E-05)
 number of electron     918.0002501 magnetization      58.1249345
 augmentation part      522.7244129 magnetization      54.3315569

 DIPCOR: dipole corrections for dipol
 direction  3 min pos   149,
 dipolmoment           0.000000      0.000000     -1.041174 electrons x Angstroem
 Tr[quadrupol]    -31548.138876

 energy correction for charged system         0.000000 eV
 dipol+quadrupol energy correction           -0.031146 eV
 added-field ion interaction        -54.844601 eV  (added to PSCEN)


  free energy =  -0.591933338465E+03  energy without entropy=  -0.591865275018E+03


--------------------------------------------------------------------------------------------------------




------------------------ aborting loop because EDIFF is reached ----------------------------------------


    CHARGE:  cpu time    1.7682: real time    1.7696
    FORLOC:  cpu time    0.0448: real time    0.0448
    FORNL :  cpu time    7.1203: real time    7.1266
    STRESS:  cpu time   20.7153: real time   21.0845
    FORCOR:  cpu time    0.2097: real time    0.2568
    FORHAR:  cpu time    0.0728: real time    0.0728
    MIXING:  cpu time    0.0297: real time    0.0297
    OFIELD:  cpu time    0.0001: real time    0.0001

  Number of pair interactions contributing to vdW energy:  524422
  Edisp (eV):   -8.21100
    FORVDW:  cpu time    0.0661: real time    0.0661

  FORCE on cell =-STRESS in cart. coord.  units (eV):
  Direction    XX          YY          ZZ          XY          YZ          ZX
  --------------------------------------------------------------------------------------
  Alpha Z  1338.31872  1338.31872  1338.31872
  Ewald  379699.24627379917.49600************   183.01892  -620.69361   308.69040
  Hartree402933.38671403093.13740************    96.97016  -383.09109   312.22126
  E(xc)   -4922.02935 -4921.83812 -4936.07636     0.21646    -0.86428    -0.28960
  Local  ************************799832.08741  -268.03821   970.89772  -642.10685
  n-local  -866.30991  -857.48006  -922.33252    -1.07921    -4.16973    -0.71092
  augment 14796.94559 14793.91647 14881.83827    -3.57884     2.11238     3.14900
  Kinetic  7781.69143  7748.11234  7919.30109    -9.14905    35.88172    18.67407
  Fock        0.00000     0.00000     0.00000     0.00000     0.00000     0.00000
  vdW       -10.56256   -10.49483    -7.81541    -0.08685    -0.01664    -0.09133
  -------------------------------------------------------------------------------------
  Total     -44.61499   -43.34669    -2.93629    -1.72663     0.05647    -0.46397
  in kB     -22.57547   -21.93371    -1.48578    -0.87369     0.02858    -0.23477
  external pressure =      -15.33 kB  Pullay stress =        0.00 kB



--------------------------------------------------------------------------------------------------------



  FREE ENERGIE OF THE ION-ELECTRON SYSTEM (eV)
  ---------------------------------------------------
  free  energy   TOTEN  =      -600.14433951 eV

  energy  without entropy=     -600.07627606  energy(sigma->0) =     -600.11030778
 
 d Force = 0.1198007E-03[ 0.788E-04, 0.161E-03]  d Energy = 0.1332246E-03-0.134E-04
 d Force =-0.5663734E+00[-0.566E+00,-0.566E+00]  d Ewald  =-0.5663732E+00-0.157E-06


--------------------------------------------------------------------------------------------------------


    POTLOK:  cpu time    0.3815: real time    0.3820


--------------------------------------------------------------------------------------------------------


 Conjugate gradient step on ions:
 trial-energy change:   -0.000133  1 .order   -0.000120   -0.000161   -0.000079
  (g-gl).g = 0.106E-03      g.g   = 0.143E-03  gl.gl    = 0.181E-03
 g(Force)  = 0.143E-03   g(Stress)= 0.000E+00 ortho     = 0.260E-05
 gamma     =   0.58611
 trial     =   1.11469
 opt step  =   2.18583  (harmonic =   2.18583) maximal distance =0.00198524
 next E    =  -600.144364   (d E  =  -0.00016)


--------------------------------------------------------------------------------------------------------


  
 reached required accuracy - stopping structural energy minimisation
     LOOP+:  cpu time  223.2835: real time  223.9605
    4ORBIT:  cpu time    0.0000: real time    0.0000

 total amount of memory used by VASP MPI-rank0   266277. kBytes
=======================================================================

   base      :      30000. kBytes
   nonlr-proj:      27818. kBytes
   fftplans  :       5452. kBytes
   grid      :      53059. kBytes
   one-center:       3483. kBytes
   wavefun   :     146465. kBytes
 
  
  
 General timing and accounting informations for this job:
 ========================================================
  
                  Total CPU time used (sec):    32910.723
                            User time (sec):    32783.415
                          System time (sec):      127.307
                         Elapsed time (sec):    33012.881
  
                   Maximum memory used (kb):      594520.
                   Average memory used (kb):           0.
  
                          Minor page faults:     13969539
                          Major page faults:            0
                 Voluntary context switches:        17500
