 vasp.5.4.4.18Apr17-6-g9f103f2a35 (build Jun 30 2017 19:19:18) complex          
  
 executed on         MareNostrum4 date 2022.04.19  22:26:13
 running on   48 total cores
 distrk:  each k-point on   48 cores,    1 groups
 distr:  one band on NCORES_PER_BAND=   1 cores,   48 groups


--------------------------------------------------------------------------------------------------------


 INCAR:
 POTCAR:    PAW_PBE Ni 02Aug2007                  
 POTCAR:    PAW_PBE C 08Apr2002                   
 POTCAR:    PAW_PBE H 15Jun2001                   
 POTCAR:    PAW_PBE O 08Apr2002                   

 ----------------------------------------------------------------------------- 
|                                                                             |
|           W    W    AA    RRRRR   N    N  II  N    N   GGGG   !!!           |
|           W    W   A  A   R    R  NN   N  II  NN   N  G    G  !!!           |
|           W    W  A    A  R    R  N N  N  II  N N  N  G       !!!           |
|           W WW W  AAAAAA  RRRRR   N  N N  II  N  N N  G  GGG   !            |
|           WW  WW  A    A  R   R   N   NN  II  N   NN  G    G                |
|           W    W  A    A  R    R  N    N  II  N    N   GGGG   !!!           |
|                                                                             |
|      For optimal performance we recommend to set                            |
|        NCORE= 4 - approx SQRT( number of cores)                             |
|      NCORE specifies how many cores store one orbital (NPAR=cpu/NCORE).     |
|      This setting can  greatly improve the performance of VASP for DFT.     |
|      The default,   NCORE=1            might be grossly inefficient         |
|      on modern multi-core architectures or massively parallel machines.     |
|      Do your own testing !!!!                                               |
|      Unfortunately you need to use the default for GW and RPA calculations. |
|      (for HF NCORE is supported but not extensively tested yet)             |
|                                                                             |
 ----------------------------------------------------------------------------- 

 POTCAR:    PAW_PBE Ni 02Aug2007                  
  local pseudopotential read in
  partial core-charges read in
  partial kinetic energy density read in
  atomic valenz-charges read in
  non local Contribution for L=           2  read in
    real space projection operators read in
  non local Contribution for L=           2  read in
    real space projection operators read in
  non local Contribution for L=           0  read in
    real space projection operators read in
  non local Contribution for L=           0  read in
    real space projection operators read in
  non local Contribution for L=           1  read in
    real space projection operators read in
  non local Contribution for L=           1  read in
    real space projection operators read in
    PAW grid and wavefunctions read in
 
   number of l-projection  operators is LMAX  =           6
   number of lm-projection operators is LMMAX =          18
 
 POTCAR:    PAW_PBE C 08Apr2002                   
  local pseudopotential read in
  partial core-charges read in
  partial kinetic energy density read in
  atomic valenz-charges read in
  non local Contribution for L=           0  read in
    real space projection operators read in
  non local Contribution for L=           0  read in
    real space projection operators read in
  non local Contribution for L=           1  read in
    real space projection operators read in
  non local Contribution for L=           1  read in
    real space projection operators read in
    PAW grid and wavefunctions read in
 
   number of l-projection  operators is LMAX  =           4
   number of lm-projection operators is LMMAX =           8
 
 POTCAR:    PAW_PBE H 15Jun2001                   
  local pseudopotential read in
  atomic valenz-charges read in
  non local Contribution for L=           0  read in
    real space projection operators read in
  non local Contribution for L=           0  read in
    real space projection operators read in
  non local Contribution for L=           1  read in
    real space projection operators read in
    PAW grid and wavefunctions read in
 
   number of l-projection  operators is LMAX  =           3
   number of lm-projection operators is LMMAX =           5
 
 POTCAR:    PAW_PBE O 08Apr2002                   
  local pseudopotential read in
  partial core-charges read in
  partial kinetic energy density read in
  kinetic energy density of atom read in
  atomic valenz-charges read in
  non local Contribution for L=           0  read in
    real space projection operators read in
  non local Contribution for L=           0  read in
    real space projection operators read in
  non local Contribution for L=           1  read in
    real space projection operators read in
  non local Contribution for L=           1  read in
    real space projection operators read in
    PAW grid and wavefunctions read in
 
   number of l-projection  operators is LMAX  =           4
   number of lm-projection operators is LMMAX =           8
 
 Optimization of the real space projectors (new method)

 maximal supplied QI-value         = 16.25
 optimisation between [QCUT,QGAM] = [ 10.73, 21.61] = [ 32.22,130.83] Ry 
 Optimized for a Real-space Cutoff    1.34 Angstroem

   l    n(q)    QCUT    max X(q) W(low)/X(q) W(high)/X(q)  e(spline) 
   2      8    10.726    60.317    0.47E-03    0.39E-03    0.97E-07
   2      8    10.726    55.921    0.48E-03    0.39E-03    0.10E-06
   0      9    10.726    51.690    0.35E-03    0.32E-03    0.97E-07
   0      9    10.726    30.015    0.31E-03    0.29E-03    0.88E-07
   1      8    10.726    18.849    0.34E-03    0.47E-04    0.17E-06
   1      8    10.726    14.624    0.29E-03    0.31E-04    0.15E-06
 Optimization of the real space projectors (new method)

 maximal supplied QI-value         = 25.13
 optimisation between [QCUT,QGAM] = [ 10.81, 21.61] = [ 32.71,130.83] Ry 
 Optimized for a Real-space Cutoff    1.23 Angstroem

   l    n(q)    QCUT    max X(q) W(low)/X(q) W(high)/X(q)  e(spline) 
   0      8    10.807   115.676    0.36E-03    0.72E-03    0.24E-06
   0      8    10.807    87.132    0.35E-03    0.71E-03    0.24E-06
   1      7    10.807     4.429    0.19E-03    0.39E-03    0.11E-06
   1      7    10.807     2.733    0.14E-03    0.28E-03    0.13E-06
 Optimization of the real space projectors (new method)

 maximal supplied QI-value         = 34.20
 optimisation between [QCUT,QGAM] = [ 10.60, 21.55] = [ 31.48,130.03] Ry 
 Optimized for a Real-space Cutoff    1.23 Angstroem

   l    n(q)    QCUT    max X(q) W(low)/X(q) W(high)/X(q)  e(spline) 
   0      8    10.603    19.460    0.37E-03    0.59E-03    0.23E-06
   0      8    10.603    12.209    0.35E-03    0.56E-03    0.22E-06
   1      7    10.603     4.655    0.70E-04    0.28E-03    0.29E-06
 Optimization of the real space projectors (new method)

 maximal supplied QI-value         = 24.76
 optimisation between [QCUT,QGAM] = [ 10.64, 21.54] = [ 31.73,129.89] Ry 
 Optimized for a Real-space Cutoff    1.23 Angstroem

   l    n(q)    QCUT    max X(q) W(low)/X(q) W(high)/X(q)  e(spline) 
   0      8    10.645    20.381    0.38E-03    0.60E-03    0.15E-06
   0      8    10.645    15.268    0.40E-03    0.65E-03    0.17E-06
   1      7    10.645     5.964    0.30E-03    0.63E-03    0.18E-06
   1      7    10.645     5.382    0.24E-03    0.53E-03    0.16E-06
  PAW_PBE Ni 02Aug2007                  :
 energy of atom  1       EATOM=-1077.6739
 kinetic energy error for atom=    0.0038 (will be added to EATOM!!)
  PAW_PBE C 08Apr2002                   :
 energy of atom  2       EATOM= -147.1560
 kinetic energy error for atom=    0.0116 (will be added to EATOM!!)
  PAW_PBE H 15Jun2001                   :
 energy of atom  3       EATOM=  -12.4884
 kinetic energy error for atom=    0.0045 (will be added to EATOM!!)
  PAW_PBE O 08Apr2002                   :
 energy of atom  4       EATOM= -432.3788
 kinetic energy error for atom=    0.0389 (will be added to EATOM!!)
 
 
 POSCAR: Ni  C  H  O                             
  positions in cartesian coordinates
  No initial velocities read in
 exchange correlation table for  LEXCH =        8
   RHO(1)=    0.500       N(1)  =     2000
   RHO(2)=  100.500       N(2)  =     4000
 


--------------------------------------------------------------------------------------------------------


 ion  position               nearest neighbor table
   1  0.000  0.250  0.190-  30 2.46  53 2.46  54 2.46   4 2.49   2 2.49  28 2.49   6 2.49  25 2.49
                             5 2.49
   2  0.000  0.500  0.190-  31 2.46  54 2.46  55 2.46   3 2.49   1 2.49  25 2.49   7 2.49  26 2.49
                             6 2.49
   3  0.000  0.750  0.190-  32 2.46  55 2.46  56 2.46   4 2.49   2 2.49  26 2.49   8 2.49  27 2.49
                             7 2.49
   4  0.000  1.000  0.190-  29 2.46  56 2.46  53 2.46   3 2.49   1 2.49  27 2.49   5 2.49  28 2.49
                             8 2.49
   5  0.143  0.250  0.190-  34 2.46  29 2.46  30 2.46   8 2.49   6 2.49  10 2.49   4 2.49   9 2.49
                             1 2.49
   6  0.143  0.500  0.190-  90 2.28  35 2.46  30 2.46  31 2.46   5 2.49   7 2.49  11 2.49   1 2.49
                            10 2.49   2 2.49
   7  0.143  0.750  0.190-  36 2.46  31 2.46  32 2.46   8 2.49   6 2.49  12 2.49   2 2.49  11 2.49
                             3 2.49
   8  0.143  1.000  0.190-  33 2.46  32 2.46  29 2.46   7 2.49   5 2.49   9 2.49   3 2.49  12 2.49
                             4 2.49
   9  0.286  0.250  0.190-  38 2.46  33 2.46  34 2.46  12 2.49  10 2.49   8 2.49  14 2.49   5 2.49
                            13 2.49
  10  0.286  0.500  0.190-  85 2.17  86 2.21  39 2.46  34 2.46  35 2.46  11 2.49   9 2.49   5 2.49
                            15 2.49   6 2.49  14 2.49
  11  0.286  0.750  0.190-  89 2.03  88 2.12  40 2.46  35 2.46  36 2.46  12 2.49  10 2.49   6 2.49
                            16 2.49   7 2.49  15 2.49
  12  0.286  1.000  0.190-  37 2.46  36 2.46  33 2.46  11 2.49   9 2.49   7 2.49  13 2.49   8 2.49
                            16 2.49
  13  0.429  0.250  0.190-  42 2.46  37 2.46  38 2.46  16 2.49  14 2.49  18 2.49  12 2.49   9 2.49
                            17 2.49
  14  0.429  0.500  0.190-  43 2.46  38 2.46  39 2.46  15 2.49  13 2.49  19 2.49   9 2.49  10 2.49
                            18 2.49
  15  0.429  0.750  0.190-  87 2.05  44 2.46  39 2.46  40 2.46  14 2.49  16 2.49  10 2.49  20 2.49
                            19 2.49  11 2.49
  16  0.429  1.000  0.190-  41 2.46  40 2.46  37 2.46  15 2.49  13 2.49  17 2.49  11 2.49  20 2.49
                            12 2.49  88 2.56
  17  0.571  0.250  0.190-  46 2.46  41 2.46  42 2.46  20 2.49  18 2.49  22 2.49  16 2.49  21 2.49
                            13 2.49
  18  0.571  0.500  0.190-  47 2.46  42 2.46  43 2.46  19 2.49  17 2.49  23 2.49  13 2.49  22 2.49
                            14 2.49
  19  0.571  0.750  0.190-  48 2.46  43 2.46  44 2.46  20 2.49  18 2.49  24 2.49  14 2.49  23 2.49
                            15 2.49
  20  0.571  1.000  0.190-  45 2.46  44 2.46  41 2.46  19 2.49  17 2.49  21 2.49  15 2.49  24 2.49
                            16 2.49
  21  0.714  0.250  0.190-  50 2.46  45 2.46  46 2.46  24 2.49  22 2.49  20 2.49  26 2.49  17 2.49
                            25 2.49
  22  0.714  0.500  0.190-  51 2.46  46 2.46  47 2.46  23 2.49  21 2.49  17 2.49  27 2.49  18 2.49
                            26 2.49
  23  0.714  0.750  0.190-  52 2.46  47 2.46  48 2.46  24 2.49  22 2.49  18 2.49  28 2.49  19 2.49
                            27 2.49
  24  0.714  1.000  0.190-  49 2.46  48 2.46  45 2.46  23 2.49  21 2.49  19 2.49  25 2.49  20 2.49
                            28 2.49
  25  0.857  0.250  0.190-  54 2.46  49 2.46  50 2.46  28 2.49  26 2.49   2 2.49  24 2.49   1 2.49
                            21 2.49
  26  0.857  0.500  0.190-  55 2.46  50 2.46  51 2.46  27 2.49  25 2.49   3 2.49  21 2.49   2 2.49
                            22 2.49
  27  0.857  0.750  0.190-  56 2.46  51 2.46  52 2.46  28 2.49  26 2.49   4 2.49  22 2.49   3 2.49
                            23 2.49
  28  0.857  1.000  0.190-  53 2.46  52 2.46  49 2.46  27 2.49  25 2.49   1 2.49  23 2.49   4 2.49
                            24 2.49
  29  0.095  0.083  0.095-   4 2.46   5 2.46   8 2.46  60 2.46  57 2.46  61 2.46  32 2.49  30 2.49
                            34 2.49  56 2.49  33 2.49  53 2.49
  30  0.095  0.333  0.095-   1 2.46   6 2.46   5 2.46  57 2.46  58 2.46  62 2.46  31 2.49  29 2.49
                            35 2.49  53 2.49  34 2.49  54 2.49
  31  0.095  0.583  0.095-   2 2.46   7 2.46   6 2.46  58 2.46  59 2.46  63 2.46  32 2.49  30 2.49
                            36 2.49  54 2.49  35 2.49  55 2.49
  32  0.095  0.833  0.095-   3 2.46   8 2.46   7 2.46  59 2.46  60 2.46  64 2.46  31 2.49  29 2.49
                            33 2.49  55 2.49  36 2.49  56 2.49
  33  0.238  0.083  0.095-   8 2.46   9 2.46  12 2.46  64 2.46  61 2.46  65 2.46  36 2.49  34 2.49
                            32 2.49  38 2.49  29 2.49  37 2.49
  34  0.238  0.333  0.095-   5 2.46  10 2.46   9 2.46  61 2.46  62 2.46  66 2.46  35 2.49  33 2.49
                            29 2.49  39 2.49  30 2.49  38 2.49
  35  0.238  0.583  0.095-   6 2.46  11 2.46  10 2.46  62 2.46  63 2.46  67 2.46  36 2.49  34 2.49
                            30 2.49  40 2.49  31 2.49  39 2.49
  36  0.238  0.833  0.095-   7 2.46  12 2.46  11 2.46  63 2.46  64 2.46  68 2.46  35 2.49  33 2.49
                            31 2.49  37 2.49  32 2.49  40 2.49
  37  0.381  0.083  0.095-  12 2.46  13 2.46  16 2.46  68 2.46  65 2.46  69 2.46  40 2.49  38 2.49
                            42 2.49  36 2.49  33 2.49  41 2.49
  38  0.381  0.333  0.095-   9 2.46  14 2.46  13 2.46  65 2.46  66 2.46  70 2.46  39 2.49  37 2.49
                            43 2.49  33 2.49  34 2.49  42 2.49
  39  0.381  0.583  0.095-  10 2.46  15 2.46  14 2.46  66 2.46  67 2.46  71 2.46  40 2.49  38 2.49
                            44 2.49  34 2.49  35 2.49  43 2.49
  40  0.381  0.833  0.095-  11 2.46  16 2.46  15 2.46  67 2.46  68 2.46  72 2.46  39 2.49  37 2.49
                            41 2.49  35 2.49  44 2.49  36 2.49
  41  0.524  0.083  0.095-  16 2.46  17 2.46  20 2.46  72 2.46  69 2.46  73 2.46  44 2.49  42 2.49
                            46 2.49  40 2.49  45 2.49  37 2.49
  42  0.524  0.333  0.095-  13 2.46  18 2.46  17 2.46  69 2.46  70 2.46  74 2.46  43 2.49  41 2.49
                            47 2.49  37 2.49  46 2.49  38 2.49
  43  0.524  0.583  0.095-  14 2.46  19 2.46  18 2.46  70 2.46  71 2.46  75 2.46  44 2.49  42 2.49
                            48 2.49  38 2.49  47 2.49  39 2.49
  44  0.524  0.833  0.095-  15 2.46  20 2.46  19 2.46  71 2.46  72 2.46  76 2.46  43 2.49  41 2.49
                            45 2.49  39 2.49  48 2.49  40 2.49
  45  0.667  0.083  0.095-  20 2.46  21 2.46  24 2.46  76 2.46  73 2.46  77 2.46  48 2.49  46 2.49
                            44 2.49  50 2.49  41 2.49  49 2.49
  46  0.667  0.333  0.095-  17 2.46  22 2.46  21 2.46  73 2.46  74 2.46  78 2.46  47 2.49  45 2.49
                            41 2.49  51 2.49  42 2.49  50 2.49
  47  0.667  0.583  0.095-  18 2.46  23 2.46  22 2.46  74 2.46  75 2.46  79 2.46  48 2.49  46 2.49
                            42 2.49  52 2.49  43 2.49  51 2.49
  48  0.667  0.833  0.095-  19 2.46  24 2.46  23 2.46  75 2.46  76 2.46  80 2.46  47 2.49  45 2.49
                            43 2.49  49 2.49  44 2.49  52 2.49
  49  0.810  0.083  0.095-  24 2.46  25 2.46  28 2.46  80 2.46  77 2.46  81 2.46  52 2.49  50 2.49
                            54 2.49  48 2.49  53 2.49  45 2.49
  50  0.810  0.333  0.095-  21 2.46  26 2.46  25 2.46  77 2.46  78 2.46  82 2.46  51 2.49  49 2.49
                            55 2.49  45 2.49  54 2.49  46 2.49
  51  0.810  0.583  0.095-  22 2.46  27 2.46  26 2.46  78 2.46  79 2.46  83 2.46  52 2.49  50 2.49
                            56 2.49  46 2.49  55 2.49  47 2.49
  52  0.810  0.833  0.095-  23 2.46  28 2.46  27 2.46  79 2.46  80 2.46  84 2.46  51 2.49  49 2.49
                            53 2.49  47 2.49  56 2.49  48 2.49
  53  0.952  0.083  0.095-  28 2.46   1 2.46   4 2.46  84 2.46  81 2.46  57 2.46  56 2.49  54 2.49
                            52 2.49  30 2.49  49 2.49  29 2.49
  54  0.952  0.333  0.095-  25 2.46   2 2.46   1 2.46  81 2.46  82 2.46  58 2.46  55 2.49  53 2.49
                            49 2.49  31 2.49  50 2.49  30 2.49
  55  0.952  0.583  0.095-  26 2.46   3 2.46   2 2.46  82 2.46  83 2.46  59 2.46  56 2.49  54 2.49
                            50 2.49  32 2.49  51 2.49  31 2.49
  56  0.952  0.833  0.095-  27 2.46   4 2.46   3 2.46  83 2.46  84 2.46  60 2.46  55 2.49  53 2.49
                            51 2.49  29 2.49  52 2.49  32 2.49
  57  0.048  0.167  0.000-  30 2.46  29 2.46  53 2.46  58 2.49  60 2.49  62 2.49  84 2.49  81 2.49
                            61 2.49
  58  0.048  0.417  0.000-  31 2.46  30 2.46  54 2.46  57 2.49  59 2.49  63 2.49  81 2.49  62 2.49
                            82 2.49
  59  0.048  0.667  0.000-  32 2.46  31 2.46  55 2.46  58 2.49  60 2.49  64 2.49  82 2.49  63 2.49
                            83 2.49
  60  0.048  0.917  0.000-  29 2.46  32 2.46  56 2.46  57 2.49  59 2.49  61 2.49  83 2.49  64 2.49
                            84 2.49
  61  0.190  0.167  0.000-  34 2.46  33 2.46  29 2.46  62 2.49  64 2.49  66 2.49  60 2.49  65 2.49
                            57 2.49
  62  0.190  0.417  0.000-  35 2.46  34 2.46  30 2.46  61 2.49  63 2.49  67 2.49  57 2.49  66 2.49
                            58 2.49
  63  0.190  0.667  0.000-  36 2.46  35 2.46  31 2.46  62 2.49  64 2.49  68 2.49  58 2.49  67 2.49
                            59 2.49
  64  0.190  0.917  0.000-  33 2.46  36 2.46  32 2.46  61 2.49  63 2.49  65 2.49  59 2.49  68 2.49
                            60 2.49
  65  0.333  0.167  0.000-  38 2.46  37 2.46  33 2.46  66 2.49  68 2.49  64 2.49  70 2.49  61 2.49
                            69 2.49
  66  0.333  0.417  0.000-  39 2.46  38 2.46  34 2.46  65 2.49  67 2.49  61 2.49  71 2.49  62 2.49
                            70 2.49
  67  0.333  0.667  0.000-  40 2.46  39 2.46  35 2.46  66 2.49  68 2.49  62 2.49  72 2.49  63 2.49
                            71 2.49
  68  0.333  0.917  0.000-  37 2.46  40 2.46  36 2.46  65 2.49  67 2.49  63 2.49  69 2.49  64 2.49
                            72 2.49
  69  0.476  0.167  0.000-  42 2.46  41 2.46  37 2.46  70 2.49  72 2.49  74 2.49  68 2.49  73 2.49
                            65 2.49
  70  0.476  0.417  0.000-  43 2.46  42 2.46  38 2.46  69 2.49  71 2.49  75 2.49  65 2.49  74 2.49
                            66 2.49
  71  0.476  0.667  0.000-  44 2.46  43 2.46  39 2.46  70 2.49  72 2.49  76 2.49  66 2.49  75 2.49
                            67 2.49
  72  0.476  0.917  0.000-  41 2.46  44 2.46  40 2.46  69 2.49  71 2.49  73 2.49  67 2.49  76 2.49
                            68 2.49
  73  0.619  0.167  0.000-  46 2.46  45 2.46  41 2.46  74 2.49  76 2.49  72 2.49  78 2.49  69 2.49
                            77 2.49
  74  0.619  0.417  0.000-  47 2.46  46 2.46  42 2.46  73 2.49  75 2.49  69 2.49  79 2.49  70 2.49
                            78 2.49
  75  0.619  0.667  0.000-  48 2.46  47 2.46  43 2.46  74 2.49  76 2.49  70 2.49  80 2.49  71 2.49
                            79 2.49
  76  0.619  0.917  0.000-  45 2.46  48 2.46  44 2.46  73 2.49  75 2.49  71 2.49  77 2.49  72 2.49
                            80 2.49
  77  0.762  0.167  0.000-  50 2.46  49 2.46  45 2.46  78 2.49  80 2.49  82 2.49  76 2.49  81 2.49
                            73 2.49
  78  0.762  0.417  0.000-  51 2.46  50 2.46  46 2.46  77 2.49  79 2.49  83 2.49  73 2.49  82 2.49
                            74 2.49
  79  0.762  0.667  0.000-  52 2.46  51 2.46  47 2.46  78 2.49  80 2.49  84 2.49  74 2.49  83 2.49
                            75 2.49
  80  0.762  0.917  0.000-  49 2.46  52 2.46  48 2.46  77 2.49  79 2.49  81 2.49  75 2.49  84 2.49
                            76 2.49
  81  0.905  0.167  0.000-  54 2.46  53 2.46  49 2.46  82 2.49  84 2.49  80 2.49  58 2.49  77 2.49
                            57 2.49
  82  0.905  0.417  0.000-  55 2.46  54 2.46  50 2.46  81 2.49  83 2.49  77 2.49  59 2.49  78 2.49
                            58 2.49
  83  0.905  0.667  0.000-  56 2.46  55 2.46  51 2.46  82 2.49  84 2.49  78 2.49  60 2.49  79 2.49
                            59 2.49
  84  0.905  0.917  0.000-  53 2.46  56 2.46  52 2.46  81 2.49  83 2.49  79 2.49  57 2.49  80 2.49
                            60 2.49
  85  0.254  0.477  0.290- 110 1.37  86 1.43  90 1.46  10 2.17
  86  0.349  0.561  0.284-  95 1.09  85 1.43  87 1.46  10 2.21
  87  0.399  0.730  0.284-  88 1.46  86 1.46  92 1.53  15 2.05
  88  0.347  0.808  0.280-  96 1.10  89 1.44  87 1.46  11 2.12  16 2.56
  89  0.252  0.724  0.283-  97 1.09  88 1.44  90 1.44  11 2.03
  90  0.203  0.557  0.289- 109 1.37  89 1.44  85 1.46   6 2.28
  91  0.254  0.257  0.338- 100 1.10  99 1.10 101 1.11 110 1.43
  92  0.483  0.816  0.325- 102 1.11 111 1.45  93 1.53  87 1.53
  93  0.536  0.733  0.335- 103 1.10 108 1.12  92 1.53  94 1.53
  94  0.627  0.838  0.363- 106 1.10 107 1.10 105 1.10  93 1.53
  95  0.384  0.501  0.299-  86 1.09
  96  0.380  0.930  0.295-  88 1.10
  97  0.218  0.784  0.299-  89 1.09
  98  0.097  0.381  0.320- 109 0.98
  99  0.303  0.329  0.375-  91 1.10
 100  0.204  0.146  0.358-  91 1.10
 101  0.289  0.236  0.299-  91 1.11
 102  0.527  0.929  0.301-  92 1.11
 103  0.497  0.631  0.365-  93 1.10
 104  0.506  0.900  0.412- 111 0.97
 105  0.623  0.881  0.411-  94 1.10
 106  0.664  0.776  0.369-  94 1.10
 107  0.666  0.939  0.332-  94 1.10
 108  0.544  0.687  0.288-  93 1.12
 109  0.125  0.495  0.321-  98 0.98  90 1.37
 110  0.207  0.331  0.316-  85 1.37  91 1.43
 111  0.453  0.843  0.385- 104 0.97  92 1.45
 
  Warning from LATTYP: Monoclinic adjustement (A1->A3, A2->A1, A3->A2)!
  Warning from LATTYP: Got some problem with cell dimensions!
  Tried to take original basis but could not verify dimensions!
  LATTYP: Found a simple monoclinic cell.
 ALAT       =    18.7839874413
 B/A-ratio  =     1.1229936872
 C/A-ratio  =     1.7371079010
 COS(beta)  =    -0.9695485959
  
  Lattice vectors:
  
 A1 = (  -7.4639997487, -17.2373690552,   0.0000000000)
 A2 = (   0.0000000000,   0.0000000000, -21.0942993164)
 A3 = (  19.9039993294,  25.8560535828,   0.0000000000)


Analysis of symmetry for initial positions (statically):
=====================================================================
 Subroutine PRICEL returns:
 Original cell was already a primitive cell.
 

 Routine SETGRP: Setting up the symmetry group for a 
 simple monoclinic supercell.


 Subroutine GETGRP returns: Found  1 space group operations
 (whereof  1 operations were pure point group operations)
 out of a pool of  4 trial point group operations.


The static configuration has the point symmetry C_1 .


Analysis of symmetry for dynamics (positions and initial velocities):
=====================================================================
 Subroutine PRICEL returns:
 Original cell was already a primitive cell.
 

 Routine SETGRP: Setting up the symmetry group for a 
 simple monoclinic supercell.


 Subroutine GETGRP returns: Found  1 space group operations
 (whereof  1 operations were pure point group operations)
 out of a pool of  4 trial point group operations.


The dynamic configuration has the point symmetry C_1 .


Analysis of constrained symmetry for selective dynamics:
=====================================================================
 Subroutine PRICEL returns:
 Original cell was already a primitive cell.
 

 Routine SETGRP: Setting up the symmetry group for a 
 simple monoclinic supercell.


 Subroutine GETGRP returns: Found  1 space group operations
 (whereof  1 operations were pure point group operations)
 out of a pool of  4 trial point group operations.


The constrained configuration has the point symmetry C_1 .


Analysis of structural, dynamic, and magnetic symmetry:
=====================================================================
 Subroutine PRICEL returns:
 Original cell was already a primitive cell.
 

 Routine SETGRP: Setting up the symmetry group for a 
 simple monoclinic supercell.


 Subroutine GETGRP returns: Found  1 space group operations
 (whereof  1 operations were pure point group operations)
 out of a pool of  4 trial point group operations.


The magnetic configuration has the point symmetry C_1 .


 Subroutine INISYM returns: Found  1 space group operations
 (whereof  1 operations are pure point group operations),
 and found     1 'primitive' translations

 
 
 KPOINTS: K-POINTS                                

Automatic generation of k-mesh.
Space group operators:
 irot       det(A)        alpha          n_x          n_y          n_z        tau_x        tau_y        tau_z
    1     1.000000     0.000001     1.000000     0.000000     0.000000     0.000000     0.000000     0.000000
 
 Subroutine IBZKPT returns following result:
 ===========================================
 
 Found      5 irreducible k-points:
 
 Following reciprocal coordinates:
            Coordinates               Weight
  0.000000  0.000000  0.000000      1.000000
  0.333333 -0.000000  0.000000      2.000000
  0.000000  0.333333  0.000000      2.000000
  0.333333  0.333333  0.000000      2.000000
 -0.333333  0.333333  0.000000      2.000000
 
 Following cartesian coordinates:
            Coordinates               Weight
  0.000000  0.000000  0.000000      1.000000
  0.019139  0.011050  0.000000      2.000000
  0.000000  0.038676  0.000000      2.000000
  0.019139  0.049726  0.000000      2.000000
 -0.019139  0.027625  0.000000      2.000000
 


--------------------------------------------------------------------------------------------------------




 Dimension of arrays:
   k-points           NKPTS =      5   k-points in BZ     NKDIM =      5   number of bands    NBANDS=    624
   number of dos      NEDOS =    301   number of ions     NIONS =    111
   non local maximal  LDIM  =      6   non local SUM 2l+1 LMDIM =     18
   total plane-waves  NPLWV = 544320
   max r-space proj   IRMAX =   1785   max aug-charges    IRDMAX=   5771
   dimension x,y,z NGX =    90 NGY =   54 NGZ =  112
   dimension x,y,z NGXF=   180 NGYF=  108 NGZF=  224
   support grid    NGXF=   180 NGYF=  108 NGZF=  224
   ions per type =              84  10  14   3
   NGX,Y,Z   is equivalent  to a cutoff of   8.59,  9.02,  8.83 a.u.
   NGXF,Y,Z  is equivalent  to a cutoff of  17.18, 18.04, 17.65 a.u.

 SYSTEM =  x                                       
 POSCAR =  Ni  C  H  O                             

 Startparameter for this run:
   NWRITE =      0    write-flag & timer
   PREC   = normal    normal or accurate (medium, high low for compatibility)
   ISTART =      0    job   : 0-new  1-cont  2-samecut
   ICHARG =      2    charge: 1-file 2-atom 10-const
   ISPIN  =      2    spin polarized calculation?
   LNONCOLLINEAR =      F non collinear calculations
   LSORBIT =      F    spin-orbit coupling
   INIWAV =      1    electr: 0-lowe 1-rand  2-diag
   LASPH  =      F    aspherical Exc in radial PAW
   METAGGA=      F    non-selfconsistent MetaGGA calc.

 Electronic Relaxation 1
   ENCUT  =  450.0 eV  33.07 Ry    5.75 a.u.  30.12 17.21 36.49*2*pi/ulx,y,z
   ENINI  =  450.0     initial cutoff
   ENAUG  =  644.9 eV  augmentation charge cutoff
   NELM   =     50;   NELMIN=  5; NELMDL= -7     # of ELM steps 
   EDIFF  = 0.1E-04   stopping-criterion for ELM
   LREAL  =      T    real-space projection
   NLSPLINE    = F    spline interpolate recip. space projectors
   LCOMPAT=      F    compatible to vasp.4.4
   GGA_COMPAT  = T    GGA compatible to vasp.4.4-vasp.4.6
   LMAXPAW     = -100 max onsite density
   LMAXMIX     =    2 max onsite mixed and CHGCAR
   VOSKOWN=      0    Vosko Wilk Nusair interpolation
   ROPT   =   -0.00050  -0.00050  -0.00050  -0.00050
 Ionic relaxation
   EDIFFG = -.2E-01   stopping-criterion for IOM
   NSW    =    300    number of steps for IOM
   NBLOCK =      1;   KBLOCK =    300    inner block; outer block 
   IBRION =      2    ionic relax: 0-MD 1-quasi-New 2-CG
   NFREE  =      2    steps in history (QN), initial steepest desc. (CG)
   ISIF   =      2    stress and relaxation
   IWAVPR =     11    prediction:  0-non 1-charg 2-wave 3-comb
   ISYM   =      2    0-nonsym 1-usesym 2-fastsym
   LCORR  =      T    Harris-Foulkes like correction to forces

   POTIM  = 0.1500    time-step for ionic-motion
   TEIN   =    0.0    initial temperature
   TEBEG  =    0.0;   TEEND  =   0.0 temperature during run
   SMASS  =  -3.00    Nose mass-parameter (am)
   estimated Nose-frequenzy (Omega)   =  0.10E-29 period in steps =****** mass=  -0.693E-26a.u.
   SCALEE = 1.0000    scale energy and forces
   NPACO  =    256;   APACO  = 16.0  distance and # of slots for P.C.
   PSTRESS=    0.0 pullay stress

  Mass of Ions in am
   POMASS =  58.69 12.01  1.00 16.00
  Ionic Valenz
   ZVAL   =  10.00  4.00  1.00  6.00
  Atomic Wigner-Seitz radii
   RWIGS  =  -1.00 -1.00 -1.00 -1.00
  virtual crystal weights 
   VCA    =   1.00  1.00  1.00  1.00
   NELECT =     912.0000    total number of electrons
   NUPDOWN=      -1.0000    fix difference up-down

 DOS related values:
   EMIN   =  10.00;   EMAX   =-10.00  energy-range for DOS
   EFERMI =   0.00
   ISMEAR =     0;   SIGMA  =   0.03  broadening in eV -4-tet -1-fermi 0-gaus

 Electronic relaxation 2 (details)
   IALGO  =     68    algorithm
   LDIAG  =      T    sub-space diagonalisation (order eigenvalues)
   LSUBROT=      F    optimize rotation matrix (better conditioning)
   TURBO    =      0    0=normal 1=particle mesh
   IRESTART =      0    0=no restart 2=restart with 2 vectors
   NREBOOT  =      0    no. of reboots
   NMIN     =      0    reboot dimension
   EREF     =   0.00    reference energy to select bands
   IMIX   =      4    mixing-type and parameters
     AMIX     =   0.40;   BMIX     =  1.00
     AMIX_MAG =   1.60;   BMIX_MAG =  1.00
     AMIN     =   0.10
     WC   =   100.;   INIMIX=   1;  MIXPRE=   1;  MAXMIX= -45

 Intra band minimization:
   WEIMIN = 0.0010     energy-eigenvalue tresh-hold
   EBREAK =  0.40E-08  absolut break condition
   DEPER  =   0.30     relativ break condition  

   TIME   =   0.40     timestep for ELM

  volume/ion in A,a.u.               =      28.53       192.50
  Fermi-wavevector in a.u.,A,eV,Ry     =   1.081156  2.043088 15.903821  1.168898
  Thomas-Fermi vector in A             =   2.217165
 
 Write flags
   LWAVE        =      F    write WAVECAR
   LDOWNSAMPLE  =      F    k-point downsampling of WAVECAR
   LCHARG       =      F    write CHGCAR
   LVTOT        =      F    write LOCPOT, total local potential
   LVHAR        =      F    write LOCPOT, Hartree potential only
   LELF         =      F    write electronic localiz. function (ELF)
   LORBIT       =      0    0 simple, 1 ext, 2 COOP (PROOUT), +10 PAW based schemes


 Dipole corrections
   LMONO  =      F    monopole corrections only (constant potential shift)
   LDIPOL =      T    correct potential (dipole corrections)
   IDIPOL =      3    1-x, 2-y, 3-z, 4-all directions 
   EPSILON=  1.0000000 bulk dielectric constant

 Exchange correlation treatment:
   GGA     =    PE    GGA type
   LEXCH   =     8    internal setting for exchange type
   VOSKOWN=      0    Vosko Wilk Nusair interpolation
   LHFCALC =     F    Hartree Fock is set to
   LHFONE  =     F    Hartree Fock one center treatment
   AEXX    =    0.0000 exact exchange contribution

 Linear response parameters
   LEPSILON=     F    determine dielectric tensor
   LRPA    =     F    only Hartree local field effects (RPA)
   LNABLA  =     F    use nabla operator in PAW spheres
   LVEL    =     F    velocity operator in full k-point grid
   LINTERFAST=   F  fast interpolation
   KINTER  =     0    interpolate to denser k-point grid
   CSHIFT  =0.1000    complex shift for real part using Kramers Kronig
   OMEGAMAX=  -1.0    maximum frequency
   DEG_THRESHOLD= 0.2000000E-02 threshold for treating states as degnerate
   RTIME   =   -0.100 relaxation time in fs
  (WPLASMAI=    0.000 imaginary part of plasma frequency in eV, 0.658/RTIME)
   DFIELD  = 0.0000000 0.0000000 0.0000000 field for delta impulse in time
 
 Orbital magnetization related:
   ORBITALMAG=     F  switch on orbital magnetization
   LCHIMAG   =     F  perturbation theory with respect to B field
   DQ        =  0.001000  dq finite difference perturbation B field
   LLRAUG    =     F  two centre corrections for induced B field



--------------------------------------------------------------------------------------------------------


 conjugate gradient relaxation of ions
   using selective dynamics as specified on POSCAR
   WARNING: If single coordinates had been selected the selection of coordinates
            is made according to the corresponding   d i r e c t   coordinates!
            Don't support selection of single cartesian coordinates -- sorry ...
  !
 charge density and potential will be updated during run
 spin polarized calculation
 RMM-DIIS sequential band-by-band and
  variant of blocked Davidson during initial phase
 perform sub-space diagonalisation
    before iterative eigenvector-optimisation
 modified Broyden-mixing scheme, WC =      100.0
 initial mixing is a Kerker type mixing with AMIX =  0.4000 and BMIX =      1.0000
 Hartree-type preconditioning will be used
 using additional bands          168
 real space projection scheme for non local part
 use partial core corrections
 calculate Harris-corrections to forces 
   (improved forces if not selfconsistent)
 use gradient corrections 
 use of overlap-Matrix (Vanderbilt PP)
 Gauss-broadening in eV      SIGMA  =   0.03


--------------------------------------------------------------------------------------------------------


  energy-cutoff  :      450.00
  volume of cell :     3166.32
      direct lattice vectors                 reciprocal lattice vectors
    17.415999413  0.000000000  0.000000000     0.057418468  0.033150568  0.000000000
    -4.975999832  8.618684528  0.000000000     0.000000000  0.116026987  0.000000000
     0.000000000  0.000000000 21.094299316     0.000000000  0.000000000  0.047406173

  length of vectors
    17.415999413  9.951999664 21.094299316     0.066301136  0.116026987  0.047406173


 
 k-points in units of 2pi/SCALE and weight: K-POINTS                                
   0.00000000  0.00000000  0.00000000       0.111
   0.01913949  0.01105019  0.00000000       0.222
   0.00000000  0.03867566  0.00000000       0.222
   0.01913949  0.04972585  0.00000000       0.222
  -0.01913949  0.02762547  0.00000000       0.222
 
 k-points in reciprocal lattice and weights: K-POINTS                                
   0.00000000  0.00000000  0.00000000       0.111
   0.33333333 -0.00000000  0.00000000       0.222
   0.00000000  0.33333333  0.00000000       0.222
   0.33333333  0.33333333  0.00000000       0.222
  -0.33333333  0.33333333  0.00000000       0.222
 
 position of ions in fractional coordinates (direct lattice) 
   0.00001537  0.24997681  0.18957704
   0.00001537  0.49997681  0.18957704
   0.00001537  0.74997681  0.18957704
   0.00001537  0.99997681  0.18957704
   0.14287251  0.24997681  0.18957704
   0.14287251  0.49997681  0.18957704
   0.14287251  0.74997681  0.18957704
   0.14287251  0.99997681  0.18957704
   0.28572965  0.24997681  0.18957704
   0.28572965  0.49997681  0.18957704
   0.28572965  0.74997681  0.18957704
   0.28572965  0.99997681  0.18957704
   0.42858680  0.24997681  0.18957704
   0.42858680  0.49997681  0.18957704
   0.42858680  0.74997681  0.18957704
   0.42858680  0.99997681  0.18957704
   0.57144394  0.24997681  0.18957704
   0.57144394  0.49997681  0.18957704
   0.57144394  0.74997681  0.18957704
   0.57144394  0.99997681  0.18957704
   0.71430108  0.24997681  0.18957704
   0.71430108  0.49997681  0.18957704
   0.71430108  0.74997681  0.18957704
   0.71430108  0.99997681  0.18957704
   0.85715822  0.24997681  0.18957704
   0.85715822  0.49997681  0.18957704
   0.85715822  0.74997681  0.18957704
   0.85715822  0.99997681  0.18957704
   0.09522464  0.08331407  0.09489846
   0.09522464  0.33331407  0.09489846
   0.09522464  0.58331407  0.09489846
   0.09522464  0.83331407  0.09489846
   0.23808178  0.08331407  0.09489846
   0.23808178  0.33331407  0.09489846
   0.23808178  0.58331407  0.09489846
   0.23808178  0.83331407  0.09489846
   0.38093893  0.08331407  0.09489846
   0.38093893  0.33331407  0.09489846
   0.38093893  0.58331407  0.09489846
   0.38093893  0.83331407  0.09489846
   0.52379607  0.08331407  0.09489846
   0.52379607  0.33331407  0.09489846
   0.52379607  0.58331407  0.09489846
   0.52379607  0.83331407  0.09489846
   0.66665321  0.08331407  0.09489846
   0.66665321  0.33331407  0.09489846
   0.66665321  0.58331407  0.09489846
   0.66665321  0.83331407  0.09489846
   0.80951035  0.08331407  0.09489846
   0.80951035  0.33331407  0.09489846
   0.80951035  0.58331407  0.09489846
   0.80951035  0.83331407  0.09489846
   0.95236750  0.08331407  0.09489846
   0.95236750  0.33331407  0.09489846
   0.95236750  0.58331407  0.09489846
   0.95236750  0.83331407  0.09489846
   0.04761857  0.16666751  0.00000001
   0.04761857  0.41666751  0.00000001
   0.04761857  0.66666751  0.00000001
   0.04761857  0.91666751  0.00000001
   0.19047572  0.16666751  0.00000001
   0.19047572  0.41666751  0.00000001
   0.19047572  0.66666751  0.00000001
   0.19047572  0.91666751  0.00000001
   0.33333286  0.16666751  0.00000001
   0.33333286  0.41666751  0.00000001
   0.33333286  0.66666751  0.00000001
   0.33333286  0.91666751  0.00000001
   0.47619000  0.16666751  0.00000001
   0.47619000  0.41666751  0.00000001
   0.47619000  0.66666751  0.00000001
   0.47619000  0.91666751  0.00000001
   0.61904714  0.16666751  0.00000001
   0.61904714  0.41666751  0.00000001
   0.61904714  0.66666751  0.00000001
   0.61904714  0.91666751  0.00000001
   0.76190429  0.16666751  0.00000001
   0.76190429  0.41666751  0.00000001
   0.76190429  0.66666751  0.00000001
   0.76190429  0.91666751  0.00000001
   0.90476143  0.16666751  0.00000001
   0.90476143  0.41666751  0.00000001
   0.90476143  0.66666751  0.00000001
   0.90476143  0.91666751  0.00000001
   0.25433154  0.47705773  0.28989067
   0.34884001  0.56107759  0.28412051
   0.39928688  0.73038094  0.28441937
   0.34730922  0.80780268  0.27979830
   0.25186196  0.72360558  0.28291265
   0.20333041  0.55668046  0.28868593
   0.25446840  0.25731546  0.33828522
   0.48314294  0.81579733  0.32485368
   0.53575708  0.73270122  0.33487325
   0.62727261  0.83834340  0.36334494
   0.38385325  0.50086985  0.29898183
   0.38037741  0.92950096  0.29494745
   0.21753455  0.78377538  0.29946186
   0.09661014  0.38127056  0.31987020
   0.30258799  0.32893793  0.37506237
   0.20403591  0.14580362  0.35789609
   0.28901718  0.23601112  0.29858412
   0.52696276  0.92946889  0.30148831
   0.49687599  0.63058250  0.36534588
   0.50589021  0.89972990  0.41171692
   0.62305213  0.88138369  0.41070059
   0.66428028  0.77628307  0.36872961
   0.66624234  0.93908700  0.33229171
   0.54355165  0.68729007  0.28841301
   0.12456155  0.49472989  0.32115192
   0.20694768  0.33128374  0.31591141
   0.45343372  0.84347180  0.38515874
 
 position of ions in cartesian coordinates  (Angst):
  -1.24361694  2.15447126  3.99899477
  -2.48761690  4.30914239  3.99899477
  -3.73161686  6.46381352  3.99899477
  -4.97561681  8.61848466  3.99899477
   1.24438298  2.15447126  3.99899477
   0.00038302  4.30914239  3.99899477
  -1.24361694  6.46381352  3.99899477
  -2.48761690  8.61848466  3.99899477
   3.73238289  2.15447126  3.99899477
   2.48838294  4.30914239  3.99899477
   1.24438298  6.46381352  3.99899477
   0.00038302  8.61848466  3.99899477
   6.22038281  2.15447126  3.99899477
   4.97638285  4.30914239  3.99899477
   3.73238289  6.46381352  3.99899477
   2.48838294  8.61848466  3.99899477
   8.70838273  2.15447126  3.99899477
   7.46438277  4.30914239  3.99899477
   6.22038281  6.46381352  3.99899477
   4.97638285  8.61848466  3.99899477
  11.19638264  2.15447126  3.99899477
   9.95238268  4.30914239  3.99899477
   8.70838273  6.46381352  3.99899477
   7.46438277  8.61848466  3.99899477
  13.68438256  2.15447126  3.99899477
  12.44038260  4.30914239  3.99899477
  11.19638264  6.46381352  3.99899477
   9.95238268  8.61848466  3.99899477
   1.24386148  0.71805767  2.00181652
  -0.00013847  2.87272880  2.00181652
  -1.24413843  5.02739993  2.00181652
  -2.48813839  7.18207107  2.00181652
   3.73186140  0.71805767  2.00181652
   2.48786144  2.87272880  2.00181652
   1.24386148  5.02739993  2.00181652
  -0.00013847  7.18207107  2.00181652
   6.21986132  0.71805767  2.00181652
   4.97586136  2.87272880  2.00181652
   3.73186140  5.02739993  2.00181652
   2.48786144  7.18207107  2.00181652
   8.70786123  0.71805767  2.00181652
   7.46386128  2.87272880  2.00181652
   6.21986132  5.02739993  2.00181652
   4.97586136  7.18207107  2.00181652
  11.19586115  0.71805767  2.00181652
   9.95186119  2.87272880  2.00181652
   8.70786123  5.02739993  2.00181652
   7.46386128  7.18207107  2.00181652
  13.68386107  0.71805767  2.00181652
  12.43986111  2.87272880  2.00181652
  11.19586115  5.02739993  2.00181652
   9.95186119  7.18207107  2.00181652
  16.17186098  0.71805767  2.00181652
  14.92786102  2.87272880  2.00181652
  13.68386107  5.02739993  2.00181652
  12.43986111  7.18207107  2.00181652
  -0.00001246  1.43645466  0.00000018
  -1.24401242  3.59112579  0.00000018
  -2.48801237  5.74579692  0.00000018
  -3.73201233  7.90046805  0.00000018
   2.48798746  1.43645466  0.00000018
   1.24398750  3.59112579  0.00000018
  -0.00001246  5.74579692  0.00000018
  -1.24401241  7.90046805  0.00000018
   4.97598738  1.43645466  0.00000018
   3.73198742  3.59112579  0.00000018
   2.48798746  5.74579692  0.00000018
   1.24398750  7.90046805  0.00000018
   7.46398729  1.43645466  0.00000018
   6.21998733  3.59112579  0.00000018
   4.97598738  5.74579692  0.00000018
   3.73198742  7.90046805  0.00000018
   9.95198721  1.43645466  0.00000018
   8.70798725  3.59112579  0.00000018
   7.46398729  5.74579692  0.00000018
   6.21998733  7.90046805  0.00000018
  12.43998712  1.43645466  0.00000018
  11.19598717  3.59112579  0.00000018
   9.95198721  5.74579692  0.00000018
   8.70798725  7.90046805  0.00000018
  14.92798704  1.43645466  0.00000018
  13.68398708  3.59112579  0.00000018
  12.43998712  5.74579692  0.00000018
  11.19598717  7.90046805  0.00000018
   2.05559883  4.11161012  6.11504053
   3.28347539  4.83575079  5.99332300
   3.31960460  6.29492291  5.99962734
   2.02911124  6.96219644  5.90214903
   0.78576644  6.23652818  5.96784410
   0.77116039  4.79785330  6.08962751
   3.15141990  2.21772075  7.13588978
   4.35500972  7.03109986  6.85256075
   5.68482380  6.31492069  7.06391650
   6.75298281  7.22541728  7.66450686
   4.19285973  4.31683919  6.30681231
   1.99945609  8.01107558  6.22170977
  -0.11148461  6.75511276  6.31693816
  -0.21464018  3.28605070  6.74743765
   3.63307713  2.83501223  7.91167782
   2.82797051  1.25663542  7.54956722
   3.85913169  2.03410539  6.29842277
   4.55254608  8.01079918  6.35968470
   5.51581361  5.43479165  7.70671534
   4.33352782  7.75448819  8.68488002
   6.46531039  7.59636797  8.66344111
   7.70632060  6.69053885  7.77809283
   6.93037944  8.09369458  7.00946073
   6.04653998  5.92353632  6.08387040
  -0.29241203  4.26392084  6.77447462
   1.95573278  2.85523006  6.66392974
   3.69988589  7.26961731  8.12465369
 


--------------------------------------------------------------------------------------------------------


 k-point  1 :   0.0000 0.0000 0.0000  plane waves:   68637
 k-point  2 :   0.3333-0.0000 0.0000  plane waves:   68670
 k-point  3 :   0.0000 0.3333 0.0000  plane waves:   68650
 k-point  4 :   0.3333 0.3333 0.0000  plane waves:   68645
 k-point  5 :  -0.3333 0.3333 0.0000  plane waves:   68661

 maximum and minimum number of plane-waves per node :     68670    68637

 maximum number of plane-waves:     68670
 maximum index in each direction: 
   IXMAX=   30   IYMAX=   17   IZMAX=   36
   IXMIN=  -30   IYMIN=  -17   IZMIN=  -36


 serial   3D FFT for wavefunctions
 parallel 3D FFT for charge:
    minimum data exchange during FFTs selected (reduces bandwidth)


 total amount of memory used by VASP MPI-rank0   266125. kBytes
=======================================================================

   base      :      30000. kBytes
   nonlr-proj:      27697. kBytes
   fftplans  :       5452. kBytes
   grid      :      53059. kBytes
   one-center:       3452. kBytes
   wavefun   :     146465. kBytes
 
     INWAV:  cpu time    0.0000: real time    0.0003
 Broyden mixing: mesh for mixing (old mesh)
   NGX = 61   NGY = 35   NGZ = 73
  (NGX  =180   NGY  =108   NGZ  =224)
  gives a total of 155855 points

 initial charge density was supplied:
 charge density of overlapping atoms calculated
 number of electron     912.0000000 magnetization     111.0000000
 keeping initial charge density in first step


--------------------------------------------------------------------------------------------------------


 Maximum index for non-local projection operator         1699
 Maximum index for augmentation-charges          348 (set IRDMAX)


--------------------------------------------------------------------------------------------------------


 First call to EWALD:  gamma=   0.121
 Maximum number of real-space cells 3x 4x 2
 Maximum number of reciprocal cells 3x 2x 4

    FEWALD:  cpu time    0.0039: real time    0.0040


--------------------------------------- Iteration      1(   1)  ---------------------------------------


    POTLOK:  cpu time    0.1949: real time    0.2194
    SETDIJ:  cpu time    0.0224: real time    0.0268
     EDDAV:  cpu time   40.6192: real time   40.6977
       DOS:  cpu time    0.0040: real time    0.0056
    --------------------------------------------
      LOOP:  cpu time   40.8406: real time   40.9496

 eigenvalue-minimisations  : 12480
 total energy-change (2. order) : 0.6791257E+04  (-0.3636177E+05)
 number of electron     912.0000000 magnetization     111.0000000
 augmentation part      912.0000000 magnetization     111.0000000

 DIPCOR: dipole corrections for dipol
 direction  3 min pos   148,
 dipolmoment           0.000000      0.000000     -0.000218 electrons x Angstroem
 Tr[quadrupol]    -31371.897275

 energy correction for charged system         0.000000 eV
 dipol+quadrupol energy correction           -0.000000 eV
 added-field ion interaction         -0.010501 eV  (added to PSCEN)


 Free energy of the ion-electron system (eV)
  ---------------------------------------------------
  alpha Z        PSCENC =      1322.89049243
  Ewald energy   TEWEN  =    325877.17561196
  -Hartree energ DENC   =   -415924.75278895
  -exchange      EXHF   =         0.00000000
  -V(xc)+E(xc)   XCENC  =      2899.56147445
  PAW double counting   =     83026.26325116   -88651.72089958
  entropy T*S    EENTRO =        -0.02430445
  eigenvalues    EBANDS =      4774.34005905
  atomic energy  EATOM  =     93467.52402730
  Solvation  Ediel_sol  =         0.00000000
  ---------------------------------------------------
  free energy    TOTEN  =      6791.25692337 eV

  energy without entropy =     6791.28122782  energy(sigma->0) =     6791.26907560


--------------------------------------------------------------------------------------------------------




--------------------------------------- Iteration      1(   2)  ---------------------------------------


     EDDAV:  cpu time   41.0433: real time   41.0660
       DOS:  cpu time    0.0037: real time    0.0037
    --------------------------------------------
      LOOP:  cpu time   41.0470: real time   41.0697

 eigenvalue-minimisations  : 12480
 total energy-change (2. order) :-0.6590269E+04  (-0.6192679E+04)
 number of electron     912.0000000 magnetization     111.0000000
 augmentation part      912.0000000 magnetization     111.0000000

 DIPCOR: dipole corrections for dipol
 direction  3 min pos   148,
 dipolmoment           0.000000      0.000000     -0.000218 electrons x Angstroem
 Tr[quadrupol]    -31371.897275

 energy correction for charged system         0.000000 eV
 dipol+quadrupol energy correction           -0.000000 eV
 added-field ion interaction         -0.010501 eV  (added to PSCEN)


 Free energy of the ion-electron system (eV)
  ---------------------------------------------------
  alpha Z        PSCENC =      1322.89049243
  Ewald energy   TEWEN  =    325877.17561196
  -Hartree energ DENC   =   -415924.75278895
  -exchange      EXHF   =         0.00000000
  -V(xc)+E(xc)   XCENC  =      2899.56147445
  PAW double counting   =     83026.26325116   -88651.72089958
  entropy T*S    EENTRO =        -0.04925017
  eigenvalues    EBANDS =     -1815.90401015
  atomic energy  EATOM  =     93467.52402730
  Solvation  Ediel_sol  =         0.00000000
  ---------------------------------------------------
  free energy    TOTEN  =       200.98790844 eV

  energy without entropy =      201.03715862  energy(sigma->0) =      201.01253353


--------------------------------------------------------------------------------------------------------




--------------------------------------- Iteration      1(   3)  ---------------------------------------


     EDDAV:  cpu time   55.2956: real time   55.3502
       DOS:  cpu time    0.0030: real time    0.0030
    --------------------------------------------
      LOOP:  cpu time   55.2986: real time   55.3532

 eigenvalue-minimisations  : 17904
 total energy-change (2. order) :-0.7983397E+03  (-0.7141273E+03)
 number of electron     912.0000000 magnetization     111.0000000
 augmentation part      912.0000000 magnetization     111.0000000

 DIPCOR: dipole corrections for dipol
 direction  3 min pos   148,
 dipolmoment           0.000000      0.000000     -0.000218 electrons x Angstroem
 Tr[quadrupol]    -31371.897275

 energy correction for charged system         0.000000 eV
 dipol+quadrupol energy correction           -0.000000 eV
 added-field ion interaction         -0.010501 eV  (added to PSCEN)


 Free energy of the ion-electron system (eV)
  ---------------------------------------------------
  alpha Z        PSCENC =      1322.89049243
  Ewald energy   TEWEN  =    325877.17561196
  -Hartree energ DENC   =   -415924.75278895
  -exchange      EXHF   =         0.00000000
  -V(xc)+E(xc)   XCENC  =      2899.56147445
  PAW double counting   =     83026.26325116   -88651.72089958
  entropy T*S    EENTRO =        -0.06993181
  eigenvalues    EBANDS =     -2614.22303589
  atomic energy  EATOM  =     93467.52402730
  Solvation  Ediel_sol  =         0.00000000
  ---------------------------------------------------
  free energy    TOTEN  =      -597.35179892 eV

  energy without entropy =     -597.28186712  energy(sigma->0) =     -597.31683302


--------------------------------------------------------------------------------------------------------




--------------------------------------- Iteration      1(   4)  ---------------------------------------


     EDDAV:  cpu time   48.8364: real time   48.8830
       DOS:  cpu time    0.0024: real time    0.0024
    --------------------------------------------
      LOOP:  cpu time   48.8388: real time   48.8853

 eigenvalue-minimisations  : 15408
 total energy-change (2. order) :-0.5129818E+02  (-0.5015013E+02)
 number of electron     912.0000000 magnetization     111.0000000
 augmentation part      912.0000000 magnetization     111.0000000

 DIPCOR: dipole corrections for dipol
 direction  3 min pos   148,
 dipolmoment           0.000000      0.000000     -0.000218 electrons x Angstroem
 Tr[quadrupol]    -31371.897275

 energy correction for charged system         0.000000 eV
 dipol+quadrupol energy correction           -0.000000 eV
 added-field ion interaction         -0.010501 eV  (added to PSCEN)


 Free energy of the ion-electron system (eV)
  ---------------------------------------------------
  alpha Z        PSCENC =      1322.89049243
  Ewald energy   TEWEN  =    325877.17561196
  -Hartree energ DENC   =   -415924.75278895
  -exchange      EXHF   =         0.00000000
  -V(xc)+E(xc)   XCENC  =      2899.56147445
  PAW double counting   =     83026.26325116   -88651.72089958
  entropy T*S    EENTRO =        -0.06984418
  eigenvalues    EBANDS =     -2665.52130811
  atomic energy  EATOM  =     93467.52402730
  Solvation  Ediel_sol  =         0.00000000
  ---------------------------------------------------
  free energy    TOTEN  =      -648.64998353 eV

  energy without entropy =     -648.58013934  energy(sigma->0) =     -648.61506143


--------------------------------------------------------------------------------------------------------




--------------------------------------- Iteration      1(   5)  ---------------------------------------


     EDDAV:  cpu time   46.4072: real time   46.4374
       DOS:  cpu time    0.0027: real time    0.0027
    --------------------------------------------
      LOOP:  cpu time   46.4099: real time   46.4401

 eigenvalue-minimisations  : 14064
 total energy-change (2. order) :-0.1318598E+01  (-0.1314640E+01)
 number of electron     912.0000000 magnetization     111.0000000
 augmentation part      912.0000000 magnetization     111.0000000

 DIPCOR: dipole corrections for dipol
 direction  3 min pos   148,
 dipolmoment           0.000000      0.000000     -0.000218 electrons x Angstroem
 Tr[quadrupol]    -31371.897275

 energy correction for charged system         0.000000 eV
 dipol+quadrupol energy correction           -0.000000 eV
 added-field ion interaction         -0.010501 eV  (added to PSCEN)


 Free energy of the ion-electron system (eV)
  ---------------------------------------------------
  alpha Z        PSCENC =      1322.89049243
  Ewald energy   TEWEN  =    325877.17561196
  -Hartree energ DENC   =   -415924.75278895
  -exchange      EXHF   =         0.00000000
  -V(xc)+E(xc)   XCENC  =      2899.56147445
  PAW double counting   =     83026.26325116   -88651.72089958
  entropy T*S    EENTRO =        -0.06995607
  eigenvalues    EBANDS =     -2666.83979422
  atomic energy  EATOM  =     93467.52402730
  Solvation  Ediel_sol  =         0.00000000
  ---------------------------------------------------
  free energy    TOTEN  =      -649.96858152 eV

  energy without entropy =     -649.89862545  energy(sigma->0) =     -649.93360349


--------------------------------------------------------------------------------------------------------




--------------------------------------- Iteration      1(   6)  ---------------------------------------


     EDDAV:  cpu time   55.1655: real time   55.1941
       DOS:  cpu time    0.0027: real time    0.0027
    --------------------------------------------
      LOOP:  cpu time   55.1682: real time   55.1968

 eigenvalue-minimisations  : 17808
 total energy-change (2. order) :-0.6881601E-01  (-0.6880853E-01)
 number of electron     912.0000000 magnetization     111.0000000
 augmentation part      912.0000000 magnetization     111.0000000

 DIPCOR: dipole corrections for dipol
 direction  3 min pos   148,
 dipolmoment           0.000000      0.000000     -0.000218 electrons x Angstroem
 Tr[quadrupol]    -31371.897275

 energy correction for charged system         0.000000 eV
 dipol+quadrupol energy correction           -0.000000 eV
 added-field ion interaction         -0.010501 eV  (added to PSCEN)


 Free energy of the ion-electron system (eV)
  ---------------------------------------------------
  alpha Z        PSCENC =      1322.89049243
  Ewald energy   TEWEN  =    325877.17561196
  -Hartree energ DENC   =   -415924.75278895
  -exchange      EXHF   =         0.00000000
  -V(xc)+E(xc)   XCENC  =      2899.56147445
  PAW double counting   =     83026.26325116   -88651.72089958
  entropy T*S    EENTRO =        -0.06995913
  eigenvalues    EBANDS =     -2666.90860718
  atomic energy  EATOM  =     93467.52402730
  Solvation  Ediel_sol  =         0.00000000
  ---------------------------------------------------
  free energy    TOTEN  =      -650.03739754 eV

  energy without entropy =     -649.96743841  energy(sigma->0) =     -650.00241798


--------------------------------------------------------------------------------------------------------




--------------------------------------- Iteration      1(   7)  ---------------------------------------


     EDDAV:  cpu time   51.2756: real time   51.3044
       DOS:  cpu time    0.0028: real time    0.0028
    CHARGE:  cpu time    1.7575: real time    1.7607
    MIXING:  cpu time    0.0043: real time    0.0059
    --------------------------------------------
      LOOP:  cpu time   53.0403: real time   53.0738

 eigenvalue-minimisations  : 16272
 total energy-change (2. order) :-0.1873209E-02  (-0.1873160E-02)
 number of electron     912.0001306 magnetization     106.2673534
 augmentation part      474.3322125 magnetization      92.6408104

 DIPCOR: dipole corrections for dipol
 direction  3 min pos   148,
 dipolmoment           0.000000      0.000000     -0.000218 electrons x Angstroem
 Tr[quadrupol]    -31371.897275

 energy correction for charged system         0.000000 eV
 dipol+quadrupol energy correction           -0.000000 eV
 added-field ion interaction         -0.010501 eV  (added to PSCEN)


 Broyden mixing:
  rms(total) = 0.95387E+01    rms(broyden)= 0.95379E+01
  rms(prec ) = 0.10024E+02
  weight for this iteration     100.00

 Free energy of the ion-electron system (eV)
  ---------------------------------------------------
  alpha Z        PSCENC =      1322.89049243
  Ewald energy   TEWEN  =    325877.17561196
  -Hartree energ DENC   =   -415924.75278895
  -exchange      EXHF   =         0.00000000
  -V(xc)+E(xc)   XCENC  =      2899.56147445
  PAW double counting   =     83026.26325116   -88651.72089958
  entropy T*S    EENTRO =        -0.06995938
  eigenvalues    EBANDS =     -2666.91048014
  atomic energy  EATOM  =     93467.52402730
  Solvation  Ediel_sol  =         0.00000000
  ---------------------------------------------------
  free energy    TOTEN  =      -650.03927075 eV

  energy without entropy =     -649.96931137  energy(sigma->0) =     -650.00429106


--------------------------------------------------------------------------------------------------------




--------------------------------------- Iteration      1(   8)  ---------------------------------------


    POTLOK:  cpu time    0.1722: real time    0.1724
    SETDIJ:  cpu time    0.0219: real time    0.0219
    EDDIAG:  cpu time    8.5464: real time    8.5527
  RMM-DIIS:  cpu time   21.3082: real time   21.3196
    ORTHCH:  cpu time    2.9254: real time    2.9264
       DOS:  cpu time    0.0014: real time    0.0014
    CHARGE:  cpu time    1.7242: real time    1.7250
    MIXING:  cpu time    0.0047: real time    0.0096
    --------------------------------------------
      LOOP:  cpu time   34.7044: real time   34.7290

 eigenvalue-minimisations  : 12538
 total energy-change (2. order) : 0.2469472E+02  (-0.1099479E+03)
 number of electron     912.0001671 magnetization     103.2723061
 augmentation part      562.5730237 magnetization      96.1540771

 DIPCOR: dipole corrections for dipol
 direction  3 min pos   144,
 dipolmoment           0.000000      0.000000      1.579093 electrons x Angstroem
 Tr[quadrupol]    -31373.796197

 energy correction for charged system         0.000000 eV
 dipol+quadrupol energy correction           -0.071642 eV
 added-field ion interaction         44.826244 eV  (added to PSCEN)


 Broyden mixing:
  rms(total) = 0.12664E+02    rms(broyden)= 0.12663E+02
  rms(prec ) = 0.13695E+02
  weight for this iteration     100.00

 eigenvalues of (default mixing * dielectric matrix)
  average eigenvalue GAMMA=   0.3544
  0.3544

 Free energy of the ion-electron system (eV)
  ---------------------------------------------------
  alpha Z        PSCENC =      1367.65559593
  Ewald energy   TEWEN  =    325877.17561196
  -Hartree energ DENC   =   -413976.72955078
  -exchange      EXHF   =         0.00000000
  -V(xc)+E(xc)   XCENC  =      2851.62047257
  PAW double counting   =     88417.59824084   -93655.47326168
  entropy T*S    EENTRO =        -0.05805431
  eigenvalues    EBANDS =     -4974.65763493
  atomic energy  EATOM  =     93467.52402730
  Solvation  Ediel_sol  =         0.00000000
  ---------------------------------------------------
  free energy    TOTEN  =      -625.34455309 eV

  energy without entropy =     -625.28649878  energy(sigma->0) =     -625.31552594


--------------------------------------------------------------------------------------------------------




--------------------------------------- Iteration      1(   9)  ---------------------------------------


    POTLOK:  cpu time    0.1708: real time    0.1718
    SETDIJ:  cpu time    0.0228: real time    0.0228
    EDDIAG:  cpu time    8.1764: real time    8.1804
  RMM-DIIS:  cpu time   20.9156: real time   20.9265
    ORTHCH:  cpu time    2.2417: real time    2.2425
       DOS:  cpu time    0.0013: real time    0.0013
    CHARGE:  cpu time    1.7768: real time    1.7781
    MIXING:  cpu time    0.0046: real time    0.0046
    --------------------------------------------
      LOOP:  cpu time   33.3101: real time   33.3280

 eigenvalue-minimisations  : 12491
 total energy-change (2. order) :-0.1459575E+02  (-0.3185351E+02)
 number of electron     912.0001222 magnetization     101.1890513
 augmentation part      524.7934399 magnetization      88.7423806

 DIPCOR: dipole corrections for dipol
 direction  3 min pos   145,
 dipolmoment           0.000000      0.000000     -1.565122 electrons x Angstroem
 Tr[quadrupol]    -31374.774859

 energy correction for charged system         0.000000 eV
 dipol+quadrupol energy correction           -0.070380 eV
 added-field ion interaction        -52.153613 eV  (added to PSCEN)


 Broyden mixing:
  rms(total) = 0.13814E+02    rms(broyden)= 0.13813E+02
  rms(prec ) = 0.16593E+02
  weight for this iteration     100.00

 eigenvalues of (default mixing * dielectric matrix)
  average eigenvalue GAMMA=   0.3271
  0.4638  0.1905

 Free energy of the ion-electron system (eV)
  ---------------------------------------------------
  alpha Z        PSCENC =      1270.67700068
  Ewald energy   TEWEN  =    325877.17561196
  -Hartree energ DENC   =   -414693.20364156
  -exchange      EXHF   =         0.00000000
  -V(xc)+E(xc)   XCENC  =      2873.00040059
  PAW double counting   =     91041.26662648   -96521.87891565
  entropy T*S    EENTRO =        -0.06203209
  eigenvalues    EBANDS =     -3954.43938002
  atomic energy  EATOM  =     93467.52402730
  Solvation  Ediel_sol  =         0.00000000
  ---------------------------------------------------
  free energy    TOTEN  =      -639.94030230 eV

  energy without entropy =     -639.87827021  energy(sigma->0) =     -639.90928625


--------------------------------------------------------------------------------------------------------




--------------------------------------- Iteration      1(  10)  ---------------------------------------


    POTLOK:  cpu time    0.1699: real time    0.1714
    SETDIJ:  cpu time    0.0220: real time    0.0220
    EDDIAG:  cpu time    8.0707: real time    8.0744
  RMM-DIIS:  cpu time   20.9748: real time   20.9898
    ORTHCH:  cpu time    2.3579: real time    2.3592
       DOS:  cpu time    0.0014: real time    0.0014
    CHARGE:  cpu time    1.7428: real time    1.7432
    MIXING:  cpu time    0.0048: real time    0.0048
    --------------------------------------------
      LOOP:  cpu time   33.3442: real time   33.3661

 eigenvalue-minimisations  : 12528
 total energy-change (2. order) :-0.5935552E+01  (-0.1149882E+02)
 number of electron     912.0001807 magnetization      99.6509723
 augmentation part      517.2438886 magnetization      85.0670172

 DIPCOR: dipole corrections for dipol
 direction  3 min pos   140,
 dipolmoment           0.000000      0.000000      1.363490 electrons x Angstroem
 Tr[quadrupol]    -31384.605278

 energy correction for charged system         0.000000 eV
 dipol+quadrupol energy correction           -0.053414 eV
 added-field ion interaction         11.790238 eV  (added to PSCEN)


 Broyden mixing:
  rms(total) = 0.14204E+02    rms(broyden)= 0.14204E+02
  rms(prec ) = 0.17422E+02
  weight for this iteration     100.00

 eigenvalues of (default mixing * dielectric matrix)
  average eigenvalue GAMMA=   0.2787
  0.5100  0.2247  0.1014

 Free energy of the ion-electron system (eV)
  ---------------------------------------------------
  alpha Z        PSCENC =      1334.63781805
  Ewald energy   TEWEN  =    325877.17561196
  -Hartree energ DENC   =   -415102.74990371
  -exchange      EXHF   =         0.00000000
  -V(xc)+E(xc)   XCENC  =      2876.46640501
  PAW double counting   =     92356.98113437   -97924.22399983
  entropy T*S    EENTRO =        -0.05495252
  eigenvalues    EBANDS =     -3531.63199479
  atomic energy  EATOM  =     93467.52402730
  Solvation  Ediel_sol  =         0.00000000
  ---------------------------------------------------
  free energy    TOTEN  =      -645.87585416 eV

  energy without entropy =     -645.82090163  energy(sigma->0) =     -645.84837790


--------------------------------------------------------------------------------------------------------




--------------------------------------- Iteration      1(  11)  ---------------------------------------


    POTLOK:  cpu time    0.1718: real time    0.1723
    SETDIJ:  cpu time    0.0216: real time    0.0219
    EDDIAG:  cpu time    8.1052: real time    8.1087
  RMM-DIIS:  cpu time   20.8961: real time   20.9050
    ORTHCH:  cpu time    2.2525: real time    2.2531
       DOS:  cpu time    0.0013: real time    0.0013
    CHARGE:  cpu time    1.7388: real time    1.7395
    MIXING:  cpu time    0.0049: real time    0.0049
    --------------------------------------------
      LOOP:  cpu time   33.1922: real time   33.2067

 eigenvalue-minimisations  : 12506
 total energy-change (2. order) : 0.4753951E+02  (-0.7681487E+01)
 number of electron     912.0001324 magnetization      98.3378086
 augmentation part      520.7598404 magnetization      85.2581341

 DIPCOR: dipole corrections for dipol
 direction  3 min pos   146,
 dipolmoment           0.000000      0.000000     -1.763129 electrons x Angstroem
 Tr[quadrupol]    -31383.469810

 energy correction for charged system         0.000000 eV
 dipol+quadrupol energy correction           -0.089314 eV
 added-field ion interaction        -67.452832 eV  (added to PSCEN)


 Broyden mixing:
  rms(total) = 0.12968E+02    rms(broyden)= 0.12968E+02
  rms(prec ) = 0.16160E+02
  weight for this iteration     100.00

 eigenvalues of (default mixing * dielectric matrix)
  average eigenvalue GAMMA=   0.2423
  0.4826  0.2831  0.1292  0.0741

 Free energy of the ion-electron system (eV)
  ---------------------------------------------------
  alpha Z        PSCENC =      1255.35884812
  Ewald energy   TEWEN  =    325877.17561196
  -Hartree energ DENC   =   -415224.28028302
  -exchange      EXHF   =         0.00000000
  -V(xc)+E(xc)   XCENC  =      2874.71976234
  PAW double counting   =     93130.96788039   -98738.07374481
  entropy T*S    EENTRO =        -0.04984610
  eigenvalues    EBANDS =     -3241.67859964
  atomic energy  EATOM  =     93467.52402730
  Solvation  Ediel_sol  =         0.00000000
  ---------------------------------------------------
  free energy    TOTEN  =      -598.33634346 eV

  energy without entropy =     -598.28649736  energy(sigma->0) =     -598.31142041


--------------------------------------------------------------------------------------------------------




--------------------------------------- Iteration      1(  12)  ---------------------------------------


    POTLOK:  cpu time    0.1738: real time    0.1752
    SETDIJ:  cpu time    0.0220: real time    0.0220
    EDDIAG:  cpu time    8.0689: real time    8.0726
  RMM-DIIS:  cpu time   20.9432: real time   20.9527
    ORTHCH:  cpu time    2.2833: real time    2.2842
       DOS:  cpu time    0.0013: real time    0.0013
    CHARGE:  cpu time    1.7444: real time    1.7451
    MIXING:  cpu time    0.0051: real time    0.0051
    --------------------------------------------
      LOOP:  cpu time   33.2419: real time   33.2581

 eigenvalue-minimisations  : 12510
 total energy-change (2. order) : 0.4107147E+02  (-0.5391765E+01)
 number of electron     912.0001491 magnetization      95.6849816
 augmentation part      522.4330943 magnetization      77.9579306

 DIPCOR: dipole corrections for dipol
 direction  3 min pos   149,
 dipolmoment           0.000000      0.000000     -0.965908 electrons x Angstroem
 Tr[quadrupol]    -31385.956833

 energy correction for charged system         0.000000 eV
 dipol+quadrupol energy correction           -0.026805 eV
 added-field ion interaction        -51.253633 eV  (added to PSCEN)


 Broyden mixing:
  rms(total) = 0.86887E+01    rms(broyden)= 0.86878E+01
  rms(prec ) = 0.97668E+01
  weight for this iteration     100.00

 eigenvalues of (default mixing * dielectric matrix)
  average eigenvalue GAMMA=   0.2814
  0.5464  0.5464  0.1221  0.1221  0.0703

 Free energy of the ion-electron system (eV)
  ---------------------------------------------------
  alpha Z        PSCENC =      1271.62055466
  Ewald energy   TEWEN  =    325877.17561196
  -Hartree energ DENC   =   -415298.22939867
  -exchange      EXHF   =         0.00000000
  -V(xc)+E(xc)   XCENC  =      2875.40208766
  PAW double counting   =     93635.64088438   -99263.44703581
  entropy T*S    EENTRO =        -0.05907886
  eigenvalues    EBANDS =     -3122.89252480
  atomic energy  EATOM  =     93467.52402730
  Solvation  Ediel_sol  =         0.00000000
  ---------------------------------------------------
  free energy    TOTEN  =      -557.26487217 eV

  energy without entropy =     -557.20579331  energy(sigma->0) =     -557.23533274


--------------------------------------------------------------------------------------------------------




--------------------------------------- Iteration      1(  13)  ---------------------------------------


    POTLOK:  cpu time    0.1695: real time    0.1701
    SETDIJ:  cpu time    0.0218: real time    0.0218
    EDDIAG:  cpu time    8.0804: real time    8.0840
  RMM-DIIS:  cpu time   21.0024: real time   21.0107
    ORTHCH:  cpu time    2.2510: real time    2.2518
       DOS:  cpu time    0.0013: real time    0.0013
    CHARGE:  cpu time    1.7118: real time    1.7127
    MIXING:  cpu time    0.0052: real time    0.0052
    --------------------------------------------
      LOOP:  cpu time   33.2435: real time   33.2576

 eigenvalue-minimisations  : 12502
 total energy-change (2. order) :-0.2612575E+02  (-0.8487056E+01)
 number of electron     912.0001481 magnetization      90.9743790
 augmentation part      523.3972328 magnetization      77.2489435

 DIPCOR: dipole corrections for dipol
 direction  3 min pos   151,
 dipolmoment           0.000000      0.000000     -1.090382 electrons x Angstroem
 Tr[quadrupol]    -31385.327182

 energy correction for charged system         0.000000 eV
 dipol+quadrupol energy correction           -0.034159 eV
 added-field ion interaction        -68.620770 eV  (added to PSCEN)


 Broyden mixing:
  rms(total) = 0.12727E+02    rms(broyden)= 0.12726E+02
  rms(prec ) = 0.15125E+02
  weight for this iteration     100.00

 eigenvalues of (default mixing * dielectric matrix)
  average eigenvalue GAMMA=   0.3222
  0.7456  0.7456  0.1345  0.1345  0.1043  0.0689

 Free energy of the ion-electron system (eV)
  ---------------------------------------------------
  alpha Z        PSCENC =      1254.24606453
  Ewald energy   TEWEN  =    325877.17561196
  -Hartree energ DENC   =   -415276.34167575
  -exchange      EXHF   =         0.00000000
  -V(xc)+E(xc)   XCENC  =      2874.64787983
  PAW double counting   =     94770.92651056  -100431.44558142
  entropy T*S    EENTRO =        -0.04423678
  eigenvalues    EBANDS =     -3120.07922241
  atomic energy  EATOM  =     93467.52402730
  Solvation  Ediel_sol  =         0.00000000
  ---------------------------------------------------
  free energy    TOTEN  =      -583.39062217 eV

  energy without entropy =     -583.34638539  energy(sigma->0) =     -583.36850378


--------------------------------------------------------------------------------------------------------




--------------------------------------- Iteration      1(  14)  ---------------------------------------


    POTLOK:  cpu time    0.1697: real time    0.1710
    SETDIJ:  cpu time    0.0220: real time    0.0220
    EDDIAG:  cpu time    8.0581: real time    8.0610
  RMM-DIIS:  cpu time   20.9192: real time   20.9278
    ORTHCH:  cpu time    2.2471: real time    2.2479
       DOS:  cpu time    0.0014: real time    0.0014
    CHARGE:  cpu time    1.7493: real time    1.7500
    MIXING:  cpu time    0.0054: real time    0.0054
    --------------------------------------------
      LOOP:  cpu time   33.1722: real time   33.1865

 eigenvalue-minimisations  : 12501
 total energy-change (2. order) : 0.4162219E+02  (-0.7445302E+01)
 number of electron     912.0001531 magnetization      89.0117483
 augmentation part      525.1415977 magnetization      70.4556884

 DIPCOR: dipole corrections for dipol
 direction  3 min pos   151,
 dipolmoment           0.000000      0.000000     -0.845586 electrons x Angstroem
 Tr[quadrupol]    -31386.168591

 energy correction for charged system         0.000000 eV
 dipol+quadrupol energy correction           -0.020543 eV
 added-field ion interaction        -53.215072 eV  (added to PSCEN)


 Broyden mixing:
  rms(total) = 0.83069E+01    rms(broyden)= 0.83062E+01
  rms(prec ) = 0.95703E+01
  weight for this iteration     100.00

 eigenvalues of (default mixing * dielectric matrix)
  average eigenvalue GAMMA=   0.3333
  0.9503  0.7317  0.2484  0.1248  0.1248  0.0866  0.0667

 Free energy of the ion-electron system (eV)
  ---------------------------------------------------
  alpha Z        PSCENC =      1269.66537852
  Ewald energy   TEWEN  =    325877.17561196
  -Hartree energ DENC   =   -415251.64311009
  -exchange      EXHF   =         0.00000000
  -V(xc)+E(xc)   XCENC  =      2879.33444982
  PAW double counting   =     96467.01276333  -102174.54176422
  entropy T*S    EENTRO =        -0.06602916
  eigenvalues    EBANDS =     -3076.22975732
  atomic energy  EATOM  =     93467.52402730
  Solvation  Ediel_sol  =         0.00000000
  ---------------------------------------------------
  free energy    TOTEN  =      -541.76842986 eV

  energy without entropy =     -541.70240070  energy(sigma->0) =     -541.73541528


--------------------------------------------------------------------------------------------------------




--------------------------------------- Iteration      1(  15)  ---------------------------------------


    POTLOK:  cpu time    0.1695: real time    0.1702
    SETDIJ:  cpu time    0.0220: real time    0.0220
    EDDIAG:  cpu time    8.0482: real time    8.0514
  RMM-DIIS:  cpu time   20.8975: real time   20.9120
    ORTHCH:  cpu time    2.2392: real time    2.2402
       DOS:  cpu time    0.0013: real time    0.0013
    CHARGE:  cpu time    1.7490: real time    1.7494
    MIXING:  cpu time    0.0057: real time    0.0057
    --------------------------------------------
      LOOP:  cpu time   33.1326: real time   33.1522

 eigenvalue-minimisations  : 12504
 total energy-change (2. order) : 0.7529591E+01  (-0.3906213E+01)
 number of electron     912.0001469 magnetization      87.5419194
 augmentation part      524.9818055 magnetization      68.5519994

 DIPCOR: dipole corrections for dipol
 direction  3 min pos   151,
 dipolmoment           0.000000      0.000000     -0.871721 electrons x Angstroem
 Tr[quadrupol]    -31387.109905

 energy correction for charged system         0.000000 eV
 dipol+quadrupol energy correction           -0.021833 eV
 added-field ion interaction        -54.859781 eV  (added to PSCEN)


 Broyden mixing:
  rms(total) = 0.75067E+01    rms(broyden)= 0.75064E+01
  rms(prec ) = 0.90564E+01
  weight for this iteration     100.00

 eigenvalues of (default mixing * dielectric matrix)
  average eigenvalue GAMMA=   0.3314
  1.0854  0.7197  0.3337  0.1328  0.1328  0.0682  0.0891  0.0891

 Free energy of the ion-electron system (eV)
  ---------------------------------------------------
  alpha Z        PSCENC =      1268.01937992
  Ewald energy   TEWEN  =    325877.17561196
  -Hartree energ DENC   =   -415307.87823632
  -exchange      EXHF   =         0.00000000
  -V(xc)+E(xc)   XCENC  =      2879.14174913
  PAW double counting   =     97061.92895876  -102788.03886938
  entropy T*S    EENTRO =        -0.06719882
  eigenvalues    EBANDS =     -2992.04426168
  atomic energy  EATOM  =     93467.52402730
  Solvation  Ediel_sol  =         0.00000000
  ---------------------------------------------------
  free energy    TOTEN  =      -534.23883912 eV

  energy without entropy =     -534.17164030  energy(sigma->0) =     -534.20523971


--------------------------------------------------------------------------------------------------------




--------------------------------------- Iteration      1(  16)  ---------------------------------------


    POTLOK:  cpu time    0.1691: real time    0.1708
    SETDIJ:  cpu time    0.0250: real time    0.0250
    EDDIAG:  cpu time    8.0542: real time    8.0576
  RMM-DIIS:  cpu time   20.8624: real time   20.8814
    ORTHCH:  cpu time    2.2397: real time    2.2404
       DOS:  cpu time    0.0014: real time    0.0013
    CHARGE:  cpu time    1.7449: real time    1.7456
    MIXING:  cpu time    0.0060: real time    0.0060
    --------------------------------------------
      LOOP:  cpu time   33.1026: real time   33.1282

 eigenvalue-minimisations  : 12509
 total energy-change (2. order) :-0.9714226E+01  (-0.1706471E+01)
 number of electron     912.0001461 magnetization      85.2149458
 augmentation part      523.1631440 magnetization      66.5691059

 DIPCOR: dipole corrections for dipol
 direction  3 min pos   151,
 dipolmoment           0.000000      0.000000     -1.002526 electrons x Angstroem
 Tr[quadrupol]    -31388.504717

 energy correction for charged system         0.000000 eV
 dipol+quadrupol energy correction           -0.028876 eV
 added-field ion interaction        -63.091754 eV  (added to PSCEN)


 Broyden mixing:
  rms(total) = 0.92967E+01    rms(broyden)= 0.92962E+01
  rms(prec ) = 0.11402E+02
  weight for this iteration     100.00

 eigenvalues of (default mixing * dielectric matrix)
  average eigenvalue GAMMA=   0.3376
  1.2475  0.7547  0.4124  0.1421  0.1421  0.1015  0.1015  0.0636  0.0730

 Free energy of the ion-electron system (eV)
  ---------------------------------------------------
  alpha Z        PSCENC =      1259.78036341
  Ewald energy   TEWEN  =    325877.17561196
  -Hartree energ DENC   =   -415399.65748105
  -exchange      EXHF   =         0.00000000
  -V(xc)+E(xc)   XCENC  =      2879.64415000
  PAW double counting   =     97435.89130735  -103175.02598777
  entropy T*S    EENTRO =        -0.06416395
  eigenvalues    EBANDS =     -2889.22089280
  atomic energy  EATOM  =     93467.52402730
  Solvation  Ediel_sol  =         0.00000000
  ---------------------------------------------------
  free energy    TOTEN  =      -543.95306554 eV

  energy without entropy =     -543.88890159  energy(sigma->0) =     -543.92098357


[...]

 DIPCOR: dipole corrections for dipol
 direction  3 min pos   148,
 dipolmoment           0.000000      0.000000     -0.746768 electrons x Angstroem
 Tr[quadrupol]    -31305.821580

 energy correction for charged system         0.000000 eV
 dipol+quadrupol energy correction           -0.016022 eV
 added-field ion interaction        -36.089721 eV  (added to PSCEN)


 eigenvalues of (default mixing * dielectric matrix)
  average eigenvalue GAMMA=   0.2148
  0.6246  0.1110  0.0515  0.0722

  free energy =  -0.585271398720E+03  energy without entropy=  -0.585204432234E+03


--------------------------------------------------------------------------------------------------------




--------------------------------------- Iteration    113(   6)  ---------------------------------------


    POTLOK:  cpu time    0.1695: real time    0.1711
    SETDIJ:  cpu time    0.0219: real time    0.0219
    EDDIAG:  cpu time    8.1513: real time    8.1549
  RMM-DIIS:  cpu time   13.0996: real time   13.1059
    ORTHCH:  cpu time    2.2282: real time    2.2290
       DOS:  cpu time    0.0013: real time    0.0013
    --------------------------------------------
      LOOP:  cpu time   23.6718: real time   23.6840

 eigenvalue-minimisations  :  7601
 total energy-change (2. order) : 0.2479210E-06  (-0.2256253E-05)
 number of electron     912.0002745 magnetization      58.1959557
 augmentation part      522.0488801 magnetization      54.3499400

 DIPCOR: dipole corrections for dipol
 direction  3 min pos   148,
 dipolmoment           0.000000      0.000000     -0.746552 electrons x Angstroem
 Tr[quadrupol]    -31305.821929

 energy correction for charged system         0.000000 eV
 dipol+quadrupol energy correction           -0.016013 eV
 added-field ion interaction        -36.079293 eV  (added to PSCEN)


  free energy =  -0.585271398472E+03  energy without entropy=  -0.585204413342E+03


--------------------------------------------------------------------------------------------------------




------------------------ aborting loop because EDIFF is reached ----------------------------------------


    CHARGE:  cpu time    1.7468: real time    1.7475
    FORLOC:  cpu time    0.0445: real time    0.0445
    FORNL :  cpu time    6.8793: real time    6.8820
    STRESS:  cpu time   20.8287: real time   20.8362
    FORCOR:  cpu time    0.2604: real time    0.2607
    FORHAR:  cpu time    0.0916: real time    0.1021
    MIXING:  cpu time    0.0192: real time    0.0192
    OFIELD:  cpu time    0.0001: real time    0.0001

  Number of pair interactions contributing to vdW energy:  515373
  Edisp (eV):   -8.07784
    FORVDW:  cpu time    0.0651: real time    0.1011

  FORCE on cell =-STRESS in cart. coord.  units (eV):
  Direction    XX          YY          ZZ          XY          YZ          ZX
  --------------------------------------------------------------------------------------
  Alpha Z  1322.90099  1322.90099  1322.90099
  Ewald  376453.88412376653.83493************  -243.58168    -3.87467   391.17386
  Hartree399443.14183399695.59778************  -293.87881    59.40693   358.02060
  E(xc)   -4891.66872 -4891.69181 -4905.71718     0.23852    -0.31554    -0.08448
  Local  ************************792820.81455   548.99044   -65.82345  -756.81719
  n-local  -839.89401  -836.94974  -894.26240    -2.87544    -1.07690    -0.84394
  augment 14789.06288 14788.66411 14873.78819    -3.18447     0.45680     2.00284
  Kinetic  7648.20577  7631.49006  7773.06051    -8.34446    11.02423     6.33685
  Fock        0.00000     0.00000     0.00000     0.00000     0.00000     0.00000
  vdW       -10.33973   -10.25310    -7.44796    -0.01801    -0.04054    -0.16167
  -------------------------------------------------------------------------------------
  Total     -45.41196   -42.67534    -2.78032    -2.65391    -0.24314    -0.37314
  in kB     -22.97875   -21.59400    -1.40686    -1.34290    -0.12303    -0.18881
  external pressure =      -15.33 kB  Pullay stress =        0.00 kB



--------------------------------------------------------------------------------------------------------



  FREE ENERGIE OF THE ION-ELECTRON SYSTEM (eV)
  ---------------------------------------------------
  free  energy   TOTEN  =      -593.34924076 eV

  energy  without entropy=     -593.28225563  energy(sigma->0) =     -593.31574820
 
 d Force = 0.5061080E-05[ 0.355E-05, 0.657E-05]  d Energy =-0.3407897E-04 0.391E-04
 d Force =-0.1052098E+01[-0.105E+01,-0.105E+01]  d Ewald  =-0.1052098E+01-0.268E-06


--------------------------------------------------------------------------------------------------------


    POTLOK:  cpu time    0.2514: real time    0.3157


--------------------------------------------------------------------------------------------------------




--------------------------------------------------------------------------------------------------------


    WAVPRE:  cpu time    0.0702: real time    0.0713
    FEWALD:  cpu time    0.0160: real time    0.0160
    ORTHCH:  cpu time    6.0946: real time    6.0969
     LOOP+:  cpu time  241.5145: real time  241.7412


--------------------------------------- Iteration    114(   1)  ---------------------------------------


    POTLOK:  cpu time    0.2579: real time    0.2587
    SETDIJ:  cpu time    0.0450: real time    0.0450
     EDDAV:  cpu time   42.1634: real time   42.2343
       DOS:  cpu time    0.0073: real time    0.0073
    CHARGE:  cpu time    1.7668: real time    1.7675
    MIXING:  cpu time    0.0037: real time    0.0037
    --------------------------------------------
      LOOP:  cpu time   44.2441: real time   44.3165

 eigenvalue-minimisations  : 12768
 total energy-change (2. order) : 0.1021753E-03  (-0.5799194E-02)
 number of electron     912.0002749 magnetization      58.1957667
 augmentation part      522.0488763 magnetization      54.3497529

 DIPCOR: dipole corrections for dipol
 direction  3 min pos   148,
 dipolmoment           0.000000      0.000000     -0.746656 electrons x Angstroem
 Tr[quadrupol]    -31305.463336

 energy correction for charged system         0.000000 eV
 dipol+quadrupol energy correction           -0.016017 eV
 added-field ion interaction        -36.086146 eV  (added to PSCEN)


  free energy =  -0.585271296545E+03  energy without entropy=  -0.585204339831E+03


--------------------------------------------------------------------------------------------------------




--------------------------------------- Iteration    114(   2)  ---------------------------------------


    POTLOK:  cpu time    0.1704: real time    0.1711
    SETDIJ:  cpu time    0.0221: real time    0.0221
    EDDIAG:  cpu time    8.0489: real time    8.0543
  RMM-DIIS:  cpu time   20.8581: real time   20.8771
    ORTHCH:  cpu time    2.2222: real time    2.2231
       DOS:  cpu time    0.0014: real time    0.0014
    CHARGE:  cpu time    1.7632: real time    1.7640
    MIXING:  cpu time    0.0039: real time    0.0039
    --------------------------------------------
      LOOP:  cpu time   33.0903: real time   33.1170

 eigenvalue-minimisations  : 12510
 total energy-change (2. order) :-0.1250717E-02  (-0.1740513E-03)
 number of electron     912.0002749 magnetization      58.1957545
 augmentation part      522.0494693 magnetization      54.3497823

 DIPCOR: dipole corrections for dipol
 direction  3 min pos   148,
 dipolmoment           0.000000      0.000000     -0.746473 electrons x Angstroem
 Tr[quadrupol]    -31305.464352

 energy correction for charged system         0.000000 eV
 dipol+quadrupol energy correction           -0.016010 eV
 added-field ion interaction        -36.077289 eV  (added to PSCEN)


 eigenvalues of (default mixing * dielectric matrix)
  average eigenvalue GAMMA=   0.0778
  0.0778

  free energy =  -0.585272547261E+03  energy without entropy=  -0.585205425581E+03


--------------------------------------------------------------------------------------------------------




--------------------------------------- Iteration    114(   3)  ---------------------------------------


    POTLOK:  cpu time    0.1724: real time    0.1727
    SETDIJ:  cpu time    0.0220: real time    0.0220
    EDDIAG:  cpu time    8.0360: real time    8.0415
  RMM-DIIS:  cpu time   21.0922: real time   21.1065
    ORTHCH:  cpu time    2.2397: real time    2.2406
       DOS:  cpu time    0.0014: real time    0.0014
    CHARGE:  cpu time    1.7673: real time    1.7678
    MIXING:  cpu time    0.0042: real time    0.0042
    --------------------------------------------
      LOOP:  cpu time   33.3352: real time   33.3568

 eigenvalue-minimisations  : 12541
 total energy-change (2. order) : 0.1228266E-02  (-0.4379008E-04)
 number of electron     912.0002749 magnetization      58.1957342
 augmentation part      522.0487631 magnetization      54.3497565

 DIPCOR: dipole corrections for dipol
 direction  3 min pos   148,
 dipolmoment           0.000000      0.000000     -0.746580 electrons x Angstroem
 Tr[quadrupol]    -31305.464279

 energy correction for charged system         0.000000 eV
 dipol+quadrupol energy correction           -0.016014 eV
 added-field ion interaction        -36.082437 eV  (added to PSCEN)


 eigenvalues of (default mixing * dielectric matrix)
  average eigenvalue GAMMA=   0.1363
  0.2112  0.0614

  free energy =  -0.585271318996E+03  energy without entropy=  -0.585204371169E+03


--------------------------------------------------------------------------------------------------------




--------------------------------------- Iteration    114(   4)  ---------------------------------------


    POTLOK:  cpu time    0.1708: real time    0.1715
    SETDIJ:  cpu time    0.0221: real time    0.0221
    EDDIAG:  cpu time    8.0457: real time    8.0510
  RMM-DIIS:  cpu time   20.8963: real time   21.0940
    ORTHCH:  cpu time    2.2222: real time    2.2229
       DOS:  cpu time    0.0013: real time    0.0013
    CHARGE:  cpu time    1.7613: real time    1.7645
    MIXING:  cpu time    0.0045: real time    0.0045
    --------------------------------------------
      LOOP:  cpu time   33.1243: real time   33.3318

 eigenvalue-minimisations  : 12455
 total energy-change (2. order) :-0.1237540E-03  (-0.1409499E-04)
 number of electron     912.0002749 magnetization      58.1956787
 augmentation part      522.0487194 magnetization      54.3496695

 DIPCOR: dipole corrections for dipol
 direction  3 min pos   148,
 dipolmoment           0.000000      0.000000     -0.746419 electrons x Angstroem
 Tr[quadrupol]    -31305.464502

 energy correction for charged system         0.000000 eV
 dipol+quadrupol energy correction           -0.016007 eV
 added-field ion interaction        -36.074656 eV  (added to PSCEN)


 eigenvalues of (default mixing * dielectric matrix)
  average eigenvalue GAMMA=   0.2392
  0.5695  0.0905  0.0577

  free energy =  -0.585271442750E+03  energy without entropy=  -0.585204467729E+03


--------------------------------------------------------------------------------------------------------




--------------------------------------- Iteration    114(   5)  ---------------------------------------


    POTLOK:  cpu time    0.1701: real time    0.1704
    SETDIJ:  cpu time    0.0221: real time    0.0221
    EDDIAG:  cpu time    8.0520: real time    8.0553
  RMM-DIIS:  cpu time   19.7115: real time   20.0083
    ORTHCH:  cpu time    2.2300: real time    2.2323
       DOS:  cpu time    0.0013: real time    0.0013
    CHARGE:  cpu time    1.7654: real time    1.7661
    MIXING:  cpu time    0.0047: real time    0.0047
    --------------------------------------------
      LOOP:  cpu time   31.9572: real time   32.2606

 eigenvalue-minimisations  : 11911
 total energy-change (2. order) :-0.2222900E-04  (-0.7853419E-05)
 number of electron     912.0002749 magnetization      58.1956250
 augmentation part      522.0490346 magnetization      54.3498321

 DIPCOR: dipole corrections for dipol
 direction  3 min pos   148,
 dipolmoment           0.000000      0.000000     -0.746703 electrons x Angstroem
 Tr[quadrupol]    -31305.463585

 energy correction for charged system         0.000000 eV
 dipol+quadrupol energy correction           -0.016019 eV
 added-field ion interaction        -36.088411 eV  (added to PSCEN)


 eigenvalues of (default mixing * dielectric matrix)
  average eigenvalue GAMMA=   0.2467
  0.7307  0.1211  0.0572  0.0776

  free energy =  -0.585271464979E+03  energy without entropy=  -0.585204514110E+03


--------------------------------------------------------------------------------------------------------




--------------------------------------- Iteration    114(   6)  ---------------------------------------


    POTLOK:  cpu time    0.1695: real time    0.1695
    SETDIJ:  cpu time    0.0221: real time    0.0221
    EDDIAG:  cpu time    8.0440: real time    8.0497
  RMM-DIIS:  cpu time   18.6886: real time   18.7110
    ORTHCH:  cpu time    2.2120: real time    2.2127
       DOS:  cpu time    0.0013: real time    0.0013
    CHARGE:  cpu time    1.7623: real time    1.7631
    MIXING:  cpu time    0.0049: real time    0.0049
    --------------------------------------------
      LOOP:  cpu time   30.9049: real time   30.9343

 eigenvalue-minimisations  : 11129
 total energy-change (2. order) : 0.5684090E-04  (-0.5111797E-05)
 number of electron     912.0002749 magnetization      58.1955989
 augmentation part      522.0489934 magnetization      54.3495170

 DIPCOR: dipole corrections for dipol
 direction  3 min pos   148,
 dipolmoment           0.000000      0.000000     -0.746394 electrons x Angstroem
 Tr[quadrupol]    -31305.464436

 energy correction for charged system         0.000000 eV
 dipol+quadrupol energy correction           -0.016006 eV
 added-field ion interaction        -36.073480 eV  (added to PSCEN)


 eigenvalues of (default mixing * dielectric matrix)
  average eigenvalue GAMMA=   0.2477
  0.7885  0.2099  0.1081  0.0567  0.0755

  free energy =  -0.585271408138E+03  energy without entropy=  -0.585204448104E+03


--------------------------------------------------------------------------------------------------------




--------------------------------------- Iteration    114(   7)  ---------------------------------------


    POTLOK:  cpu time    0.1709: real time    0.1709
    SETDIJ:  cpu time    0.0220: real time    0.0220
    EDDIAG:  cpu time    8.1907: real time    8.1960
  RMM-DIIS:  cpu time   14.2873: real time   14.2950
    ORTHCH:  cpu time    2.2239: real time    2.2250
       DOS:  cpu time    0.0013: real time    0.0013
    --------------------------------------------
      LOOP:  cpu time   24.8961: real time   24.9102

 eigenvalue-minimisations  :  8356
 total energy-change (2. order) :-0.6823335E-05  (-0.2705652E-05)
 number of electron     912.0002749 magnetization      58.1955989
 augmentation part      522.0489934 magnetization      54.3495170

 DIPCOR: dipole corrections for dipol
 direction  3 min pos   148,
 dipolmoment           0.000000      0.000000     -0.746965 electrons x Angstroem
 Tr[quadrupol]    -31305.463061

 energy correction for charged system         0.000000 eV
 dipol+quadrupol energy correction           -0.016031 eV
 added-field ion interaction        -36.101052 eV  (added to PSCEN)


  free energy =  -0.585271414961E+03  energy without entropy=  -0.585204429644E+03


--------------------------------------------------------------------------------------------------------




------------------------ aborting loop because EDIFF is reached ----------------------------------------


    CHARGE:  cpu time    1.7620: real time    1.7647
    FORLOC:  cpu time    0.0445: real time    0.0448
    FORNL :  cpu time    6.8862: real time    6.8884
    STRESS:  cpu time   20.5262: real time   20.5495
    FORCOR:  cpu time    0.1693: real time    0.1697
    FORHAR:  cpu time    0.0597: real time    0.0598
    MIXING:  cpu time    0.0052: real time    0.0052
    OFIELD:  cpu time    0.0001: real time    0.0001

  Number of pair interactions contributing to vdW energy:  515380
  Edisp (eV):   -8.07800
    FORVDW:  cpu time    0.0650: real time    0.0650

  FORCE on cell =-STRESS in cart. coord.  units (eV):
  Direction    XX          YY          ZZ          XY          YZ          ZX
  --------------------------------------------------------------------------------------
  Alpha Z  1322.90099  1322.90099  1322.90099
  Ewald  376460.98497376661.28171************  -244.01783    -3.59223   391.67821
  Hartree399451.97563399705.34024************  -294.58124    59.02766   357.23796
  E(xc)   -4891.67587 -4891.69879 -4905.72341     0.23769    -0.31509    -0.08413
  Local  ************************792837.16466   550.06864   -65.68546  -756.48059
  n-local  -839.87930  -836.94054  -894.24015    -2.88339    -1.07634    -0.83501
  augment 14789.07696 14788.65747 14873.76578    -3.16122     0.44752     1.98376
  Kinetic  7648.23608  7631.53625  7773.09083    -8.29737    10.99988     6.32847
  Fock        0.00000     0.00000     0.00000     0.00000     0.00000     0.00000
  vdW       -10.33982   -10.25362    -7.44817    -0.01790    -0.04094    -0.16214
  -------------------------------------------------------------------------------------
  Total     -45.38046   -42.65749    -2.72745    -2.65262    -0.23499    -0.33349
  in kB     -22.96281   -21.58497    -1.38011    -1.34224    -0.11891    -0.16875
  external pressure =      -15.31 kB  Pullay stress =        0.00 kB



--------------------------------------------------------------------------------------------------------



  FREE ENERGIE OF THE ION-ELECTRON SYSTEM (eV)
  ---------------------------------------------------
  free  energy   TOTEN  =      -593.34941458 eV

  energy  without entropy=     -593.28242926  energy(sigma->0) =     -593.31592192
 
 d Force = 0.2013219E-03[ 0.130E-03, 0.273E-03]  d Energy = 0.1738154E-03 0.275E-04
 d Force =-0.7157079E+01[-0.716E+01,-0.716E+01]  d Ewald  =-0.7157079E+01-0.304E-07


--------------------------------------------------------------------------------------------------------


    POTLOK:  cpu time    0.1931: real time    0.1931


--------------------------------------------------------------------------------------------------------


 Conjugate gradient step on ions:
 trial-energy change:   -0.000174  1 .order   -0.000201   -0.000273   -0.000130
  (g-gl).g = 0.109E-03      g.g   = 0.140E-03  gl.gl    = 0.164E-03
 g(Force)  = 0.140E-03   g(Stress)= 0.000E+00 ortho     = 0.184E-04
 gamma     =   0.66563
 trial     =   1.78732
 opt step  =   3.41256  (harmonic =   3.41256) maximal distance =0.00146798
 next E    =  -593.349501   (d E  =  -0.00026)


--------------------------------------------------------------------------------------------------------


  
 reached required accuracy - stopping structural energy minimisation
     LOOP+:  cpu time  261.3148: real time  262.0214
    4ORBIT:  cpu time    0.0000: real time    0.0000

 total amount of memory used by VASP MPI-rank0   266125. kBytes
=======================================================================

   base      :      30000. kBytes
   nonlr-proj:      27697. kBytes
   fftplans  :       5452. kBytes
   grid      :      53059. kBytes
   one-center:       3452. kBytes
   wavefun   :     146465. kBytes
 
  
  
 General timing and accounting informations for this job:
 ========================================================
  
                  Total CPU time used (sec):    48108.023
                            User time (sec):    47938.813
                          System time (sec):      169.211
                         Elapsed time (sec):    48196.527
  
                   Maximum memory used (kb):      588836.
                   Average memory used (kb):           0.
  
                          Minor page faults:     15208848
                          Major page faults:            0
                 Voluntary context switches:        19344
