 vasp.5.4.4.18Apr17-6-g9f103f2a35 (build May 11 2017 09:47:33) complex          
  
 executed on            tekla2IFC date 2022.05.24  19:36:22
 running on   12 total cores
 distrk:  each k-point on   12 cores,    1 groups
 distr:  one band on NCORES_PER_BAND=   1 cores,   12 groups


--------------------------------------------------------------------------------------------------------


 INCAR:
 POTCAR:    PAW_PBE C 08Apr2002                   
 POTCAR:    PAW_PBE H 15Jun2001                   
 POTCAR:    PAW_PBE O 08Apr2002                   

 ----------------------------------------------------------------------------- 
|                                                                             |
|           W    W    AA    RRRRR   N    N  II  N    N   GGGG   !!!           |
|           W    W   A  A   R    R  NN   N  II  NN   N  G    G  !!!           |
|           W    W  A    A  R    R  N N  N  II  N N  N  G       !!!           |
|           W WW W  AAAAAA  RRRRR   N  N N  II  N  N N  G  GGG   !            |
|           WW  WW  A    A  R   R   N   NN  II  N   NN  G    G                |
|           W    W  A    A  R    R  N    N  II  N    N   GGGG   !!!           |
|                                                                             |
|      For optimal performance we recommend to set                            |
|        NCORE= 4 - approx SQRT( number of cores)                             |
|      NCORE specifies how many cores store one orbital (NPAR=cpu/NCORE).     |
|      This setting can  greatly improve the performance of VASP for DFT.     |
|      The default,   NCORE=1            might be grossly inefficient         |
|      on modern multi-core architectures or massively parallel machines.     |
|      Do your own testing !!!!                                               |
|      Unfortunately you need to use the default for GW and RPA calculations. |
|      (for HF NCORE is supported but not extensively tested yet)             |
|                                                                             |
 ----------------------------------------------------------------------------- 

 POTCAR:    PAW_PBE C 08Apr2002                   
  local pseudopotential read in
  partial core-charges read in
  partial kinetic energy density read in
  atomic valenz-charges read in
  non local Contribution for L=           0  read in
    real space projection operators read in
  non local Contribution for L=           0  read in
    real space projection operators read in
  non local Contribution for L=           1  read in
    real space projection operators read in
  non local Contribution for L=           1  read in
    real space projection operators read in
    PAW grid and wavefunctions read in
 
   number of l-projection  operators is LMAX  =           4
   number of lm-projection operators is LMMAX =           8
 
 POTCAR:    PAW_PBE H 15Jun2001                   
  local pseudopotential read in
  atomic valenz-charges read in
  non local Contribution for L=           0  read in
    real space projection operators read in
  non local Contribution for L=           0  read in
    real space projection operators read in
  non local Contribution for L=           1  read in
    real space projection operators read in
    PAW grid and wavefunctions read in
 
   number of l-projection  operators is LMAX  =           3
   number of lm-projection operators is LMMAX =           5
 
 POTCAR:    PAW_PBE O 08Apr2002                   
  local pseudopotential read in
  partial core-charges read in
  partial kinetic energy density read in
  kinetic energy density of atom read in
  atomic valenz-charges read in
  non local Contribution for L=           0  read in
    real space projection operators read in
  non local Contribution for L=           0  read in
    real space projection operators read in
  non local Contribution for L=           1  read in
    real space projection operators read in
  non local Contribution for L=           1  read in
    real space projection operators read in
    PAW grid and wavefunctions read in
 
   number of l-projection  operators is LMAX  =           4
   number of lm-projection operators is LMMAX =           8
 
 Optimization of the real space projectors (new method)

 maximal supplied QI-value         = 25.13
 optimisation between [QCUT,QGAM] = [ 10.81, 21.61] = [ 32.71,130.83] Ry 
 Optimized for a Real-space Cutoff    1.23 Angstroem

   l    n(q)    QCUT    max X(q) W(low)/X(q) W(high)/X(q)  e(spline) 
   0      8    10.807   115.676    0.36E-03    0.72E-03    0.24E-06
   0      8    10.807    87.132    0.35E-03    0.71E-03    0.24E-06
   1      7    10.807     4.429    0.19E-03    0.39E-03    0.11E-06
   1      7    10.807     2.733    0.14E-03    0.28E-03    0.13E-06
 Optimization of the real space projectors (new method)

 maximal supplied QI-value         = 34.20
 optimisation between [QCUT,QGAM] = [ 10.60, 21.55] = [ 31.48,130.03] Ry 
 Optimized for a Real-space Cutoff    1.23 Angstroem

   l    n(q)    QCUT    max X(q) W(low)/X(q) W(high)/X(q)  e(spline) 
   0      8    10.603    19.460    0.37E-03    0.59E-03    0.23E-06
   0      8    10.603    12.209    0.35E-03    0.56E-03    0.22E-06
   1      7    10.603     4.655    0.70E-04    0.28E-03    0.29E-06
 Optimization of the real space projectors (new method)

 maximal supplied QI-value         = 24.76
 optimisation between [QCUT,QGAM] = [ 10.64, 21.54] = [ 31.73,129.89] Ry 
 Optimized for a Real-space Cutoff    1.23 Angstroem

   l    n(q)    QCUT    max X(q) W(low)/X(q) W(high)/X(q)  e(spline) 
   0      8    10.645    20.381    0.38E-03    0.60E-03    0.15E-06
   0      8    10.645    15.268    0.40E-03    0.65E-03    0.17E-06
   1      7    10.645     5.964    0.30E-03    0.63E-03    0.18E-06
   1      7    10.645     5.382    0.24E-03    0.53E-03    0.16E-06
  PAW_PBE C 08Apr2002                   :
 energy of atom  1       EATOM= -147.1560
 kinetic energy error for atom=    0.0116 (will be added to EATOM!!)
  PAW_PBE H 15Jun2001                   :
 energy of atom  2       EATOM=  -12.4884
 kinetic energy error for atom=    0.0045 (will be added to EATOM!!)
  PAW_PBE O 08Apr2002                   :
 energy of atom  3       EATOM= -432.3788
 kinetic energy error for atom=    0.0389 (will be added to EATOM!!)
 
 
 POSCAR: C  H  O                                 
  positions in cartesian coordinates
  No initial velocities read in
 exchange correlation table for  LEXCH =        8
   RHO(1)=    0.500       N(1)  =     2000
   RHO(2)=  100.500       N(2)  =     4000
 


--------------------------------------------------------------------------------------------------------


 ion  position               nearest neighbor table
   1  0.310  0.459  0.510-  39 1.38   2 1.39   6 1.41
   2  0.363  0.477  0.551-  18 1.09   1 1.39   3 1.41
   3  0.388  0.543  0.550-   4 1.39   2 1.41   8 1.52
   4  0.359  0.590  0.508-  19 1.09   3 1.39   5 1.40
   5  0.306  0.572  0.466-  20 1.09   6 1.39   4 1.40
   6  0.281  0.507  0.466-  38 1.37   5 1.39   1 1.41
   7  0.306  0.347  0.550-  23 1.10  22 1.10  24 1.10  39 1.43
   8  0.446  0.560  0.596-  25 1.10  41 1.44   3 1.52   9 1.55
   9  0.511  0.524  0.577-  26 1.10  40 1.45  16 1.53   8 1.55
  10  0.595  0.547  0.490-  40 1.38  11 1.39  12 1.42
  11  0.626  0.605  0.467-  28 1.09  10 1.39  13 1.40
  12  0.627  0.485  0.484-  43 1.37  14 1.40  10 1.42
  13  0.690  0.602  0.439-  29 1.09  15 1.39  11 1.40
  14  0.692  0.482  0.457-  30 1.09  15 1.40  12 1.40
  15  0.723  0.541  0.434-  31 1.09  13 1.39  14 1.40
  16  0.565  0.529  0.631-  33 1.10  32 1.11  42 1.42   9 1.53
  17  0.627  0.366  0.501-  36 1.10  37 1.10  35 1.10  43 1.43
  18  0.385  0.440  0.585-   2 1.09
  19  0.377  0.641  0.508-   4 1.09
  20  0.283  0.609  0.433-   5 1.09
  21  0.219  0.443  0.434-  38 0.98
  22  0.301  0.362  0.603-   7 1.10
  23  0.276  0.302  0.541-   7 1.10
  24  0.359  0.337  0.539-   7 1.10
  25  0.433  0.545  0.648-   8 1.10
  26  0.500  0.470  0.570-   9 1.10
  27  0.479  0.643  0.557-  41 0.98
  28  0.600  0.652  0.473-  11 1.09
  29  0.714  0.648  0.421-  13 1.09
  30  0.718  0.435  0.452-  14 1.09
  31  0.773  0.538  0.412-  15 1.09
  32  0.545  0.502  0.676-  16 1.11
  33  0.610  0.503  0.615-  16 1.10
  34  0.543  0.623  0.646-  42 0.98
  35  0.673  0.366  0.531-  17 1.10
  36  0.592  0.329  0.521-  17 1.10
  37  0.639  0.354  0.448-  17 1.10
  38  0.228  0.490  0.426-  21 0.98   6 1.37
  39  0.280  0.397  0.507-   1 1.38   7 1.43
  40  0.530  0.554  0.514-  10 1.38   9 1.45
  41  0.458  0.631  0.600-  27 0.98   8 1.44
  42  0.584  0.596  0.648-  34 0.98  16 1.42
  43  0.593  0.429  0.506-  12 1.37  17 1.43
 
  LATTYP: Found a simple cubic cell.
 ALAT       =    20.0000000000
  
  Lattice vectors:
  
 A1 = (  20.0000000000,   0.0000000000,   0.0000000000)
 A2 = (   0.0000000000,  20.0000000000,   0.0000000000)
 A3 = (   0.0000000000,   0.0000000000,  20.0000000000)


Analysis of symmetry for initial positions (statically):
=====================================================================
 Subroutine PRICEL returns:
 Original cell was already a primitive cell.
 

 Routine SETGRP: Setting up the symmetry group for a 
 simple cubic supercell.


 Subroutine GETGRP returns: Found  1 space group operations
 (whereof  1 operations were pure point group operations)
 out of a pool of 48 trial point group operations.


The static configuration has the point symmetry C_1 .


Analysis of symmetry for dynamics (positions and initial velocities):
=====================================================================
 Subroutine PRICEL returns:
 Original cell was already a primitive cell.
 

 Routine SETGRP: Setting up the symmetry group for a 
 simple cubic supercell.


 Subroutine GETGRP returns: Found  1 space group operations
 (whereof  1 operations were pure point group operations)
 out of a pool of 48 trial point group operations.


The dynamic configuration has the point symmetry C_1 .


Analysis of constrained symmetry for selective dynamics:
=====================================================================
 Subroutine PRICEL returns:
 Original cell was already a primitive cell.
 

 Routine SETGRP: Setting up the symmetry group for a 
 simple cubic supercell.


 Subroutine GETGRP returns: Found  1 space group operations
 (whereof  1 operations were pure point group operations)
 out of a pool of 48 trial point group operations.


The constrained configuration has the point symmetry C_1 .


 Subroutine INISYM returns: Found  1 space group operations
 (whereof  1 operations are pure point group operations),
 and found     1 'primitive' translations

 
 
 KPOINTS: K-POINTS                                

Automatic generation of k-mesh.
Space group operators:
 irot       det(A)        alpha          n_x          n_y          n_z        tau_x        tau_y        tau_z
    1     1.000000     0.000000     1.000000     0.000000     0.000000     0.000000     0.000000     0.000000
 
 Subroutine IBZKPT returns following result:
 ===========================================
 
 Found      1 irreducible k-points:
 
 Following reciprocal coordinates:
            Coordinates               Weight
  0.000000  0.000000  0.000000      1.000000
 
 Following cartesian coordinates:
            Coordinates               Weight
  0.000000  0.000000  0.000000      1.000000
 


--------------------------------------------------------------------------------------------------------




 Dimension of arrays:
   k-points           NKPTS =      1   k-points in BZ     NKDIM =      1   number of bands    NBANDS=     84
   number of dos      NEDOS =    301   number of ions     NIONS =     43
   non local maximal  LDIM  =      4   non local SUM 2l+1 LMDIM =      8
   total plane-waves  NPLWV = ******
   max r-space proj   IRMAX =   1268   max aug-charges    IRDMAX=   2242
   dimension x,y,z NGX =   108 NGY =  108 NGZ =  108
   dimension x,y,z NGXF=   216 NGYF=  216 NGZF=  216
   support grid    NGXF=   216 NGYF=  216 NGZF=  216
   ions per type =              17  20   6
   NGX,Y,Z   is equivalent  to a cutoff of   8.98,  8.98,  8.98 a.u.
   NGXF,Y,Z  is equivalent  to a cutoff of  17.95, 17.95, 17.95 a.u.

 SYSTEM =  ag-1211-a                               
 POSCAR =  C  H  O                                 

 Startparameter for this run:
   NWRITE =      0    write-flag & timer
   PREC   = normal    normal or accurate (medium, high low for compatibility)
   ISTART =      0    job   : 0-new  1-cont  2-samecut
   ICHARG =      2    charge: 1-file 2-atom 10-const
   ISPIN  =      1    spin polarized calculation?
   LNONCOLLINEAR =      F non collinear calculations
   LSORBIT =      F    spin-orbit coupling
   INIWAV =      1    electr: 0-lowe 1-rand  2-diag
   LASPH  =      F    aspherical Exc in radial PAW
   METAGGA=      F    non-selfconsistent MetaGGA calc.

 Electronic Relaxation 1
   ENCUT  =  450.0 eV  33.07 Ry    5.75 a.u.  34.59 34.59 34.59*2*pi/ulx,y,z
   ENINI  =  450.0     initial cutoff
   ENAUG  =  644.9 eV  augmentation charge cutoff
   NELM   =     50;   NELMIN=  5; NELMDL= -7     # of ELM steps 
   EDIFF  = 0.1E-04   stopping-criterion for ELM
   LREAL  =      T    real-space projection
   NLSPLINE    = F    spline interpolate recip. space projectors
   LCOMPAT=      F    compatible to vasp.4.4
   GGA_COMPAT  = T    GGA compatible to vasp.4.4-vasp.4.6
   LMAXPAW     = -100 max onsite density
   LMAXMIX     =    2 max onsite mixed and CHGCAR
   VOSKOWN=      0    Vosko Wilk Nusair interpolation
   ROPT   =   -0.00050  -0.00050  -0.00050
 Ionic relaxation
   EDIFFG = -.2E-01   stopping-criterion for IOM
   NSW    =    300    number of steps for IOM
   NBLOCK =      1;   KBLOCK =    300    inner block; outer block 
   IBRION =      2    ionic relax: 0-MD 1-quasi-New 2-CG
   NFREE  =      2    steps in history (QN), initial steepest desc. (CG)
   ISIF   =      2    stress and relaxation
   IWAVPR =     11    prediction:  0-non 1-charg 2-wave 3-comb
   ISYM   =      2    0-nonsym 1-usesym 2-fastsym
   LCORR  =      T    Harris-Foulkes like correction to forces

   POTIM  = 0.1500    time-step for ionic-motion
   TEIN   =    0.0    initial temperature
   TEBEG  =    0.0;   TEEND  =   0.0 temperature during run
   SMASS  =  -3.00    Nose mass-parameter (am)
   estimated Nose-frequenzy (Omega)   =  0.10E-29 period in steps =****** mass=  -0.914E-26a.u.
   SCALEE = 1.0000    scale energy and forces
   NPACO  =    256;   APACO  = 16.0  distance and # of slots for P.C.
   PSTRESS=    0.0 pullay stress

  Mass of Ions in am
   POMASS =  12.01  1.00 16.00
  Ionic Valenz
   ZVAL   =   4.00  1.00  6.00
  Atomic Wigner-Seitz radii
   RWIGS  =  -1.00 -1.00 -1.00
  virtual crystal weights 
   VCA    =   1.00  1.00  1.00
   NELECT =     124.0000    total number of electrons
   NUPDOWN=      -1.0000    fix difference up-down

 DOS related values:
   EMIN   =  10.00;   EMAX   =-10.00  energy-range for DOS
   EFERMI =   0.00
   ISMEAR =     0;   SIGMA  =   0.03  broadening in eV -4-tet -1-fermi 0-gaus

 Electronic relaxation 2 (details)
   IALGO  =     68    algorithm
   LDIAG  =      T    sub-space diagonalisation (order eigenvalues)
   LSUBROT=      F    optimize rotation matrix (better conditioning)
   TURBO    =      0    0=normal 1=particle mesh
   IRESTART =      0    0=no restart 2=restart with 2 vectors
   NREBOOT  =      0    no. of reboots
   NMIN     =      0    reboot dimension
   EREF     =   0.00    reference energy to select bands
   IMIX   =      4    mixing-type and parameters
     AMIX     =   0.40;   BMIX     =  1.00
     AMIX_MAG =   1.60;   BMIX_MAG =  1.00
     AMIN     =   0.10
     WC   =   100.;   INIMIX=   1;  MIXPRE=   1;  MAXMIX= -45

 Intra band minimization:
   WEIMIN = 0.0010     energy-eigenvalue tresh-hold
   EBREAK =  0.30E-07  absolut break condition
   DEPER  =   0.30     relativ break condition  

   TIME   =   0.40     timestep for ELM

  volume/ion in A,a.u.               =     186.05      1255.50
  Fermi-wavevector in a.u.,A,eV,Ry     =   0.408180  0.771349  2.266883  0.166611
  Thomas-Fermi vector in A             =   1.362322
 
 Write flags
   LWAVE        =      F    write WAVECAR
   LDOWNSAMPLE  =      F    k-point downsampling of WAVECAR
   LCHARG       =      F    write CHGCAR
   LVTOT        =      F    write LOCPOT, total local potential
   LVHAR        =      F    write LOCPOT, Hartree potential only
   LELF         =      F    write electronic localiz. function (ELF)
   LORBIT       =      0    0 simple, 1 ext, 2 COOP (PROOUT), +10 PAW based schemes


 Dipole corrections
   LMONO  =      F    monopole corrections only (constant potential shift)
   LDIPOL =      F    correct potential (dipole corrections)
   IDIPOL =      0    1-x, 2-y, 3-z, 4-all directions 
   EPSILON=  1.0000000 bulk dielectric constant

 Exchange correlation treatment:
   GGA     =    PE    GGA type
   LEXCH   =     8    internal setting for exchange type
   VOSKOWN=      0    Vosko Wilk Nusair interpolation
   LHFCALC =     F    Hartree Fock is set to
   LHFONE  =     F    Hartree Fock one center treatment
   AEXX    =    0.0000 exact exchange contribution

 Linear response parameters
   LEPSILON=     F    determine dielectric tensor
   LRPA    =     F    only Hartree local field effects (RPA)
   LNABLA  =     F    use nabla operator in PAW spheres
   LVEL    =     F    velocity operator in full k-point grid
   LINTERFAST=   F  fast interpolation
   KINTER  =     0    interpolate to denser k-point grid
   CSHIFT  =0.1000    complex shift for real part using Kramers Kronig
   OMEGAMAX=  -1.0    maximum frequency
   DEG_THRESHOLD= 0.2000000E-02 threshold for treating states as degnerate
   RTIME   =   -0.100 relaxation time in fs
  (WPLASMAI=    0.000 imaginary part of plasma frequency in eV, 0.658/RTIME)
   DFIELD  = 0.0000000 0.0000000 0.0000000 field for delta impulse in time
 
 Orbital magnetization related:
   ORBITALMAG=     F  switch on orbital magnetization
   LCHIMAG   =     F  perturbation theory with respect to B field
   DQ        =  0.001000  dq finite difference perturbation B field
   LLRAUG    =     F  two centre corrections for induced B field



--------------------------------------------------------------------------------------------------------


 conjugate gradient relaxation of ions
   using selective dynamics as specified on POSCAR
   WARNING: If single coordinates had been selected the selection of coordinates
            is made according to the corresponding   d i r e c t   coordinates!
            Don't support selection of single cartesian coordinates -- sorry ...
  !
 charge density and potential will be updated during run
 non-spin polarized calculation
 RMM-DIIS sequential band-by-band and
  variant of blocked Davidson during initial phase
 perform sub-space diagonalisation
    before iterative eigenvector-optimisation
 modified Broyden-mixing scheme, WC =      100.0
 initial mixing is a Kerker type mixing with AMIX =  0.4000 and BMIX =      1.0000
 Hartree-type preconditioning will be used
 using additional bands           22
 real space projection scheme for non local part
 use partial core corrections
 calculate Harris-corrections to forces 
   (improved forces if not selfconsistent)
 use gradient corrections 
 use of overlap-Matrix (Vanderbilt PP)
 Gauss-broadening in eV      SIGMA  =   0.03


--------------------------------------------------------------------------------------------------------


  energy-cutoff  :      450.00
  volume of cell :     8000.00
      direct lattice vectors                 reciprocal lattice vectors
    20.000000000  0.000000000  0.000000000     0.050000000  0.000000000  0.000000000
     0.000000000 20.000000000  0.000000000     0.000000000  0.050000000  0.000000000
     0.000000000  0.000000000 20.000000000     0.000000000  0.000000000  0.050000000

  length of vectors
    20.000000000 20.000000000 20.000000000     0.050000000  0.050000000  0.050000000


 
 k-points in units of 2pi/SCALE and weight: K-POINTS                                
   0.00000000  0.00000000  0.00000000       1.000
 
 k-points in reciprocal lattice and weights: K-POINTS                                
   0.00000000  0.00000000  0.00000000       1.000
 
 position of ions in fractional coordinates (direct lattice) 
   0.30969137  0.45945363  0.50983391
   0.36279484  0.47723305  0.55122589
   0.38784376  0.54292755  0.55044086
   0.35872948  0.58985687  0.50793216
   0.30555080  0.57211579  0.46597359
   0.28071191  0.50718425  0.46649726
   0.30605284  0.34685043  0.55014343
   0.44587900  0.56041466  0.59616103
   0.51110169  0.52366699  0.57706661
   0.59456583  0.54686453  0.49027401
   0.62620856  0.60466046  0.46741565
   0.62749910  0.48454154  0.48414118
   0.68983853  0.60217337  0.43875023
   0.69188040  0.48245274  0.45654419
   0.72278940  0.54094875  0.43377414
   0.56470256  0.52942931  0.63135184
   0.62688647  0.36627911  0.50085205
   0.38496613  0.44023228  0.58464355
   0.37681114  0.64124596  0.50791442
   0.28252636  0.60862895  0.43265027
   0.21850901  0.44274973  0.43402781
   0.30060957  0.36208003  0.60286881
   0.27634212  0.30181732  0.54054007
   0.35923951  0.33691595  0.53943404
   0.43340637  0.54509467  0.64764883
   0.50017459  0.47014016  0.56976087
   0.47905156  0.64266910  0.55717315
   0.59961088  0.65195608  0.47295561
   0.71350577  0.64800341  0.42112137
   0.71795547  0.43486558  0.45195605
   0.77271329  0.53806813  0.41203273
   0.54470906  0.50242721  0.67559322
   0.61015424  0.50299869  0.61511021
   0.54319407  0.62313838  0.64569985
   0.67337396  0.36614716  0.53057915
   0.59202711  0.32893668  0.52074875
   0.63899110  0.35439932  0.44835349
   0.22838177  0.48993135  0.42581015
   0.28040751  0.39716106  0.50656610
   0.53020591  0.55359793  0.51391381
   0.45808534  0.63118537  0.59989065
   0.58398332  0.59586302  0.64765646
   0.59325580  0.42905754  0.50592241
 
 position of ions in cartesian coordinates  (Angst):
   6.19382744  9.18907258 10.19667822
   7.25589689  9.54466109 11.02451789
   7.75687514 10.85855102 11.00881725
   7.17458955 11.79713741 10.15864324
   6.11101591 11.44231582  9.31947184
   5.61423819 10.14368506  9.32994516
   6.12105686  6.93700865 11.00286852
   8.91757991 11.20829323 11.92322070
  10.22203383 10.47333988 11.54133221
  11.89131664 10.93729068  9.80548026
  12.52417125 12.09320913  9.34831300
  12.54998198  9.69083072  9.68282369
  13.79677064 12.04346746  8.77500461
  13.83760801  9.64905471  9.13088377
  14.45578793 10.81897496  8.67548274
  11.29405112 10.58858624 12.62703686
  12.53772937  7.32558230 10.01704092
   7.69932260  8.80464554 11.69287092
   7.53622285 12.82491927 10.15828842
   5.65052717 12.17257896  8.65300536
   4.37018026  8.85499468  8.68055625
   6.01219147  7.24160050 12.05737615
   5.52684246  6.03634635 10.81080148
   7.18479016  6.73831902 10.78868085
   8.66812734 10.90189346 12.95297659
  10.00349176  9.40280311 11.39521745
   9.58103110 12.85338205 11.14346297
  11.99221765 13.03912150  9.45911216
  14.27011535 12.96006824  8.42242734
  14.35910945  8.69731154  9.03912100
  15.45426586 10.76136254  8.24065457
  10.89418124 10.04854427 13.51186444
  12.20308487 10.05997376 12.30220410
  10.86388133 12.46276757 12.91399698
  13.46747928  7.32294322 10.61158304
  11.84054212  6.57873359 10.41497506
  12.77982193  7.08798632  8.96706984
   4.56763541  9.79862690  8.51620306
   5.60815016  7.94322129 10.13132201
  10.60411817 11.07195851 10.27827629
   9.16170682 12.62370734 11.99781293
  11.67966646 11.91726030 12.95312913
  11.86511598  8.58115077 10.11844827
 


--------------------------------------------------------------------------------------------------------


 k-point  1 :   0.0000 0.0000 0.0000  plane waves:  173541

 maximum and minimum number of plane-waves per node :    173541   173541

 maximum number of plane-waves:    173541
 maximum index in each direction: 
   IXMAX=   34   IYMAX=   34   IZMAX=   34
   IXMIN=  -34   IYMIN=  -34   IZMIN=  -34


 serial   3D FFT for wavefunctions
 parallel 3D FFT for charge:
    minimum data exchange during FFTs selected (reduces bandwidth)


 total amount of memory used by VASP MPI-rank0   191688. kBytes
=======================================================================

   base      :      30000. kBytes
   nonlr-proj:       3858. kBytes
   fftplans  :      33533. kBytes
   grid      :     104696. kBytes
   one-center:        132. kBytes
   wavefun   :      19469. kBytes
 
     INWAV:  cpu time    0.0000: real time    0.0001
 Broyden mixing: mesh for mixing (old mesh)
   NGX = 69   NGY = 69   NGZ = 69
  (NGX  =216   NGY  =216   NGZ  =216)
  gives a total of 328509 points

 initial charge density was supplied:
 charge density of overlapping atoms calculated
 number of electron     124.0000000 magnetization 
 keeping initial charge density in first step


--------------------------------------------------------------------------------------------------------


 Maximum index for non-local projection operator         1197
 Maximum index for augmentation-charges          191 (set IRDMAX)


--------------------------------------------------------------------------------------------------------


 First call to EWALD:  gamma=   0.089
 Maximum number of real-space cells 3x 3x 3
 Maximum number of reciprocal cells 3x 3x 3

    FEWALD:  cpu time    0.0040: real time    0.0039


--------------------------------------- Iteration      1(   1)  ---------------------------------------


    POTLOK:  cpu time    1.3968: real time    1.4069
    SETDIJ:  cpu time    0.0070: real time    0.0077
     EDDAV:  cpu time    8.0248: real time    8.0485
       DOS:  cpu time    0.0010: real time    0.0008
    --------------------------------------------
      LOOP:  cpu time    9.4296: real time    9.4639

 eigenvalue-minimisations  :   216
 total energy-change (2. order) : 0.1076746E+04  (-0.3031501E+04)
 number of electron     124.0000000 magnetization 
 augmentation part      124.0000000 magnetization 

 Free energy of the ion-electron system (eV)
  ---------------------------------------------------
  alpha Z        PSCENC =         8.32042091
  Ewald energy   TEWEN  =     13644.46535109
  -Hartree energ DENC   =    -17555.05927582
  -exchange      EXHF   =         0.00000000
  -V(xc)+E(xc)   XCENC  =       436.77908463
  PAW double counting   =      3966.85219852    -3987.50167695
  entropy T*S    EENTRO =        -0.02603890
  eigenvalues    EBANDS =      -782.25547934
  atomic energy  EATOM  =      5345.17153341
  Solvation  Ediel_sol  =         0.00000000
  ---------------------------------------------------
  free energy    TOTEN  =      1076.74611754 eV

  energy without entropy =     1076.77215644  energy(sigma->0) =     1076.75913699


--------------------------------------------------------------------------------------------------------




--------------------------------------- Iteration      1(   2)  ---------------------------------------


     EDDAV:  cpu time   10.1305: real time   10.1598
       DOS:  cpu time    0.0010: real time    0.0008
    --------------------------------------------
      LOOP:  cpu time   10.1315: real time   10.1605

 eigenvalue-minimisations  :   288
 total energy-change (2. order) :-0.7861444E+03  (-0.7322087E+03)
 number of electron     124.0000000 magnetization 
 augmentation part      124.0000000 magnetization 

 Free energy of the ion-electron system (eV)
  ---------------------------------------------------
  alpha Z        PSCENC =         8.32042091
  Ewald energy   TEWEN  =     13644.46535109
  -Hartree energ DENC   =    -17555.05927582
  -exchange      EXHF   =         0.00000000
  -V(xc)+E(xc)   XCENC  =       436.77908463
  PAW double counting   =      3966.85219852    -3987.50167695
  entropy T*S    EENTRO =        -0.00388757
  eigenvalues    EBANDS =     -1568.42202956
  atomic energy  EATOM  =      5345.17153341
  Solvation  Ediel_sol  =         0.00000000
  ---------------------------------------------------
  free energy    TOTEN  =       290.60171865 eV

  energy without entropy =      290.60560622  energy(sigma->0) =      290.60366243


--------------------------------------------------------------------------------------------------------




--------------------------------------- Iteration      1(   3)  ---------------------------------------


     EDDAV:  cpu time    8.3387: real time    8.3979
       DOS:  cpu time    0.0010: real time    0.0006
    --------------------------------------------
      LOOP:  cpu time    8.3397: real time    8.3985

 eigenvalue-minimisations  :   228
 total energy-change (2. order) :-0.4973041E+03  (-0.4832099E+03)
 number of electron     124.0000000 magnetization 
 augmentation part      124.0000000 magnetization 

 Free energy of the ion-electron system (eV)
  ---------------------------------------------------
  alpha Z        PSCENC =         8.32042091
  Ewald energy   TEWEN  =     13644.46535109
  -Hartree energ DENC   =    -17555.05927582
  -exchange      EXHF   =         0.00000000
  -V(xc)+E(xc)   XCENC  =       436.77908463
  PAW double counting   =      3966.85219852    -3987.50167695
  entropy T*S    EENTRO =        -0.00000000
  eigenvalues    EBANDS =     -2065.73002711
  atomic energy  EATOM  =      5345.17153341
  Solvation  Ediel_sol  =         0.00000000
  ---------------------------------------------------
  free energy    TOTEN  =      -206.70239134 eV

  energy without entropy =     -206.70239134  energy(sigma->0) =     -206.70239134


--------------------------------------------------------------------------------------------------------




--------------------------------------- Iteration      1(   4)  ---------------------------------------


     EDDAV:  cpu time    7.2309: real time    7.3325
       DOS:  cpu time    0.0010: real time    0.0007
    --------------------------------------------
      LOOP:  cpu time    7.2319: real time    7.3332

 eigenvalue-minimisations  :   192
 total energy-change (2. order) :-0.7980678E+02  (-0.7950341E+02)
 number of electron     124.0000000 magnetization 
 augmentation part      124.0000000 magnetization 

 Free energy of the ion-electron system (eV)
  ---------------------------------------------------
  alpha Z        PSCENC =         8.32042091
  Ewald energy   TEWEN  =     13644.46535109
  -Hartree energ DENC   =    -17555.05927582
  -exchange      EXHF   =         0.00000000
  -V(xc)+E(xc)   XCENC  =       436.77908463
  PAW double counting   =      3966.85219852    -3987.50167695
  entropy T*S    EENTRO =        -0.00000000
  eigenvalues    EBANDS =     -2145.53680517
  atomic energy  EATOM  =      5345.17153341
  Solvation  Ediel_sol  =         0.00000000
  ---------------------------------------------------
  free energy    TOTEN  =      -286.50916939 eV

  energy without entropy =     -286.50916939  energy(sigma->0) =     -286.50916939


--------------------------------------------------------------------------------------------------------




--------------------------------------- Iteration      1(   5)  ---------------------------------------


     EDDAV:  cpu time    7.9168: real time    8.0192
       DOS:  cpu time    0.0010: real time    0.0006
    --------------------------------------------
      LOOP:  cpu time    7.9178: real time    8.0198

 eigenvalue-minimisations  :   216
 total energy-change (2. order) :-0.2022259E+01  (-0.1985038E+01)
 number of electron     124.0000000 magnetization 
 augmentation part      124.0000000 magnetization 

 Free energy of the ion-electron system (eV)
  ---------------------------------------------------
  alpha Z        PSCENC =         8.32042091
  Ewald energy   TEWEN  =     13644.46535109
  -Hartree energ DENC   =    -17555.05927582
  -exchange      EXHF   =         0.00000000
  -V(xc)+E(xc)   XCENC  =       436.77908463
  PAW double counting   =      3966.85219852    -3987.50167695
  entropy T*S    EENTRO =        -0.00000000
  eigenvalues    EBANDS =     -2147.55906388
  atomic energy  EATOM  =      5345.17153341
  Solvation  Ediel_sol  =         0.00000000
  ---------------------------------------------------
  free energy    TOTEN  =      -288.53142811 eV

  energy without entropy =     -288.53142811  energy(sigma->0) =     -288.53142811


--------------------------------------------------------------------------------------------------------




--------------------------------------- Iteration      1(   6)  ---------------------------------------


     EDDAV:  cpu time    7.5858: real time    7.6792
       DOS:  cpu time    0.0010: real time    0.0007
    --------------------------------------------
      LOOP:  cpu time    7.5868: real time    7.6799

 eigenvalue-minimisations  :   204
 total energy-change (2. order) :-0.6383464E-01  (-0.6342852E-01)
 number of electron     124.0000000 magnetization 
 augmentation part      124.0000000 magnetization 

 Free energy of the ion-electron system (eV)
  ---------------------------------------------------
  alpha Z        PSCENC =         8.32042091
  Ewald energy   TEWEN  =     13644.46535109
  -Hartree energ DENC   =    -17555.05927582
  -exchange      EXHF   =         0.00000000
  -V(xc)+E(xc)   XCENC  =       436.77908463
  PAW double counting   =      3966.85219852    -3987.50167695
  entropy T*S    EENTRO =        -0.00000000
  eigenvalues    EBANDS =     -2147.62289852
  atomic energy  EATOM  =      5345.17153341
  Solvation  Ediel_sol  =         0.00000000
  ---------------------------------------------------
  free energy    TOTEN  =      -288.59526274 eV

  energy without entropy =     -288.59526274  energy(sigma->0) =     -288.59526274


--------------------------------------------------------------------------------------------------------




--------------------------------------- Iteration      1(   7)  ---------------------------------------


     EDDAV:  cpu time    8.2837: real time    8.3620
       DOS:  cpu time    0.0010: real time    0.0006
    CHARGE:  cpu time    0.6249: real time    0.6272
    MIXING:  cpu time    0.0360: real time    0.0354
    --------------------------------------------
      LOOP:  cpu time    8.9456: real time    9.0253

 eigenvalue-minimisations  :   228
 total energy-change (2. order) :-0.3312098E-02  (-0.3308858E-02)
 number of electron     123.9999992 magnetization 
 augmentation part        6.5494980 magnetization 

 Broyden mixing:
  rms(total) = 0.26791E+01    rms(broyden)= 0.26764E+01
  rms(prec ) = 0.29013E+01
  weight for this iteration     100.00

 Free energy of the ion-electron system (eV)
  ---------------------------------------------------
  alpha Z        PSCENC =         8.32042091
  Ewald energy   TEWEN  =     13644.46535109
  -Hartree energ DENC   =    -17555.05927582
  -exchange      EXHF   =         0.00000000
  -V(xc)+E(xc)   XCENC  =       436.77908463
  PAW double counting   =      3966.85219852    -3987.50167695
  entropy T*S    EENTRO =        -0.00000000
  eigenvalues    EBANDS =     -2147.62621062
  atomic energy  EATOM  =      5345.17153341
  Solvation  Ediel_sol  =         0.00000000
  ---------------------------------------------------
  free energy    TOTEN  =      -288.59857484 eV

  energy without entropy =     -288.59857484  energy(sigma->0) =     -288.59857484


--------------------------------------------------------------------------------------------------------




--------------------------------------- Iteration      1(   8)  ---------------------------------------


    POTLOK:  cpu time    1.2968: real time    1.3001
    SETDIJ:  cpu time    0.0070: real time    0.0079
    EDDIAG:  cpu time    1.3208: real time    1.3241
  RMM-DIIS:  cpu time    4.4113: real time    4.4233
    ORTHCH:  cpu time    0.2650: real time    0.2656
       DOS:  cpu time    0.0000: real time    0.0002
    CHARGE:  cpu time    0.6179: real time    0.6191
    MIXING:  cpu time    0.0360: real time    0.0363
    --------------------------------------------
      LOOP:  cpu time    7.9548: real time    7.9766

 eigenvalue-minimisations  :   168
 total energy-change (2. order) : 0.1822474E+02  (-0.3340357E+01)
 number of electron     123.9999995 magnetization 
 augmentation part        6.1280681 magnetization 

 Broyden mixing:
  rms(total) = 0.14304E+01    rms(broyden)= 0.14302E+01
  rms(prec ) = 0.15285E+01
  weight for this iteration     100.00

 eigenvalues of (default mixing * dielectric matrix)
  average eigenvalue GAMMA=   1.5633
  1.5633

 Free energy of the ion-electron system (eV)
  ---------------------------------------------------
  alpha Z        PSCENC =         8.32042091
  Ewald energy   TEWEN  =     13644.46535109
  -Hartree energ DENC   =    -17777.84597349
  -exchange      EXHF   =         0.00000000
  -V(xc)+E(xc)   XCENC  =       447.87507874
  PAW double counting   =      5999.44243433    -6022.90866578
  entropy T*S    EENTRO =        -0.00000000
  eigenvalues    EBANDS =     -1914.89401182
  atomic energy  EATOM  =      5345.17153341
  Solvation  Ediel_sol  =         0.00000000
  ---------------------------------------------------
  free energy    TOTEN  =      -270.37383263 eV

  energy without entropy =     -270.37383263  energy(sigma->0) =     -270.37383263


--------------------------------------------------------------------------------------------------------




--------------------------------------- Iteration      1(   9)  ---------------------------------------


    POTLOK:  cpu time    1.2938: real time    1.2991
    SETDIJ:  cpu time    0.0070: real time    0.0078
    EDDIAG:  cpu time    1.3258: real time    1.3285
  RMM-DIIS:  cpu time    4.3553: real time    4.3680
    ORTHCH:  cpu time    0.2730: real time    0.2731
       DOS:  cpu time    0.0000: real time    0.0002
    CHARGE:  cpu time    0.6189: real time    0.6201
    MIXING:  cpu time    0.0380: real time    0.0381
    --------------------------------------------
      LOOP:  cpu time    7.9118: real time    7.9351

 eigenvalue-minimisations  :   168
 total energy-change (2. order) : 0.4363018E+01  (-0.1382398E+01)
 number of electron     123.9999996 magnetization 
 augmentation part        5.9471531 magnetization 

 Broyden mixing:
  rms(total) = 0.58852E+00    rms(broyden)= 0.58834E+00
  rms(prec ) = 0.61960E+00
  weight for this iteration     100.00

 eigenvalues of (default mixing * dielectric matrix)
  average eigenvalue GAMMA=   1.7116
  1.2974  2.1258

 Free energy of the ion-electron system (eV)
  ---------------------------------------------------
  alpha Z        PSCENC =         8.32042091
  Ewald energy   TEWEN  =     13644.46535109
  -Hartree energ DENC   =    -17951.45565185
  -exchange      EXHF   =         0.00000000
  -V(xc)+E(xc)   XCENC  =       456.20632394
  PAW double counting   =      8503.31243998    -8527.99674149
  entropy T*S    EENTRO =        -0.00000000
  eigenvalues    EBANDS =     -1744.03449090
  atomic energy  EATOM  =      5345.17153341
  Solvation  Ediel_sol  =         0.00000000
  ---------------------------------------------------
  free energy    TOTEN  =      -266.01081492 eV

  energy without entropy =     -266.01081492  energy(sigma->0) =     -266.01081492


--------------------------------------------------------------------------------------------------------




--------------------------------------- Iteration      1(  10)  ---------------------------------------


    POTLOK:  cpu time    1.2998: real time    1.3034
    SETDIJ:  cpu time    0.0140: real time    0.0144
    EDDIAG:  cpu time    1.3238: real time    1.3267
  RMM-DIIS:  cpu time    4.5653: real time    4.5794
    ORTHCH:  cpu time    0.2720: real time    0.2731
       DOS:  cpu time    0.0000: real time    0.0002
    CHARGE:  cpu time    0.6169: real time    0.6183
    MIXING:  cpu time    0.0410: real time    0.0409
    --------------------------------------------
      LOOP:  cpu time    8.1328: real time    8.1564

 eigenvalue-minimisations  :   170
 total energy-change (2. order) : 0.4832353E+00  (-0.1695892E+00)
 number of electron     123.9999996 magnetization 
 augmentation part        5.9194348 magnetization 

 Broyden mixing:
  rms(total) = 0.17389E+00    rms(broyden)= 0.17380E+00
  rms(prec ) = 0.19676E+00
  weight for this iteration     100.00

 eigenvalues of (default mixing * dielectric matrix)
  average eigenvalue GAMMA=   1.7205
  1.1023  2.2138  1.8455

 Free energy of the ion-electron system (eV)
  ---------------------------------------------------
  alpha Z        PSCENC =         8.32042091
  Ewald energy   TEWEN  =     13644.46535109
  -Hartree energ DENC   =    -18016.39805747
  -exchange      EXHF   =         0.00000000
  -V(xc)+E(xc)   XCENC  =       459.09946827
  PAW double counting   =      9923.73992216    -9948.28817577
  entropy T*S    EENTRO =        -0.00000000
  eigenvalues    EBANDS =     -1681.63804224
  atomic energy  EATOM  =      5345.17153341
  Solvation  Ediel_sol  =         0.00000000
  ---------------------------------------------------
  free energy    TOTEN  =      -265.52757965 eV

  energy without entropy =     -265.52757965  energy(sigma->0) =     -265.52757965


--------------------------------------------------------------------------------------------------------




--------------------------------------- Iteration      1(  11)  ---------------------------------------


    POTLOK:  cpu time    1.3078: real time    1.3119
    SETDIJ:  cpu time    0.0090: real time    0.0090
    EDDIAG:  cpu time    1.3198: real time    1.3227
  RMM-DIIS:  cpu time    4.5603: real time    4.5742
    ORTHCH:  cpu time    0.2700: real time    0.2711
       DOS:  cpu time    0.0010: real time    0.0003
    CHARGE:  cpu time    0.6159: real time    0.6177
    MIXING:  cpu time    0.0430: real time    0.0430
    --------------------------------------------
      LOOP:  cpu time    8.1268: real time    8.1499

 eigenvalue-minimisations  :   172
 total energy-change (2. order) : 0.9190019E-01  (-0.1876709E-01)
 number of electron     123.9999996 magnetization 
 augmentation part        5.9115560 magnetization 

 Broyden mixing:
  rms(total) = 0.44973E-01    rms(broyden)= 0.44950E-01
  rms(prec ) = 0.72799E-01
  weight for this iteration     100.00

 eigenvalues of (default mixing * dielectric matrix)
  average eigenvalue GAMMA=   1.6486
  2.1265  2.1265  1.1228  1.2187

 Free energy of the ion-electron system (eV)
  ---------------------------------------------------
  alpha Z        PSCENC =         8.32042091
  Ewald energy   TEWEN  =     13644.46535109
  -Hartree energ DENC   =    -18036.37294710
  -exchange      EXHF   =         0.00000000
  -V(xc)+E(xc)   XCENC  =       459.54185910
  PAW double counting   =     10224.16342513   -10248.47898755
  entropy T*S    EENTRO =        -0.00000000
  eigenvalues    EBANDS =     -1662.24633444
  atomic energy  EATOM  =      5345.17153341
  Solvation  Ediel_sol  =         0.00000000
  ---------------------------------------------------
  free energy    TOTEN  =      -265.43567946 eV

  energy without entropy =     -265.43567946  energy(sigma->0) =     -265.43567946


--------------------------------------------------------------------------------------------------------




--------------------------------------- Iteration      1(  12)  ---------------------------------------


    POTLOK:  cpu time    1.3128: real time    1.3269
    SETDIJ:  cpu time    0.0080: real time    0.0078
    EDDIAG:  cpu time    1.3258: real time    1.3299
  RMM-DIIS:  cpu time    4.8103: real time    4.8245
    ORTHCH:  cpu time    0.2660: real time    0.2663
       DOS:  cpu time    0.0000: real time    0.0004
    CHARGE:  cpu time    0.6179: real time    0.6197
    MIXING:  cpu time    0.0480: real time    0.0474
    --------------------------------------------
      LOOP:  cpu time    8.3887: real time    8.4230

 eigenvalue-minimisations  :   177
 total energy-change (2. order) : 0.1445063E-01  (-0.2359928E-02)
 number of electron     123.9999996 magnetization 
 augmentation part        5.9077555 magnetization 

 Broyden mixing:
  rms(total) = 0.25994E-01    rms(broyden)= 0.25989E-01
  rms(prec ) = 0.50442E-01
  weight for this iteration     100.00

 eigenvalues of (default mixing * dielectric matrix)
  average eigenvalue GAMMA=   1.7956
  2.5395  2.5395  1.0317  1.2129  1.6542

 Free energy of the ion-electron system (eV)
  ---------------------------------------------------
  alpha Z        PSCENC =         8.32042091
  Ewald energy   TEWEN  =     13644.46535109
  -Hartree energ DENC   =    -18050.01486103
  -exchange      EXHF   =         0.00000000
  -V(xc)+E(xc)   XCENC  =       459.67258663
  PAW double counting   =     10203.86731599   -10228.14960186
  entropy T*S    EENTRO =        -0.00000000
  eigenvalues    EBANDS =     -1648.75397396
  atomic energy  EATOM  =      5345.17153341
  Solvation  Ediel_sol  =         0.00000000
  ---------------------------------------------------
  free energy    TOTEN  =      -265.42122882 eV

  energy without entropy =     -265.42122882  energy(sigma->0) =     -265.42122882


--------------------------------------------------------------------------------------------------------




--------------------------------------- Iteration      1(  13)  ---------------------------------------


    POTLOK:  cpu time    1.3238: real time    1.3277
    SETDIJ:  cpu time    0.0080: real time    0.0081
    EDDIAG:  cpu time    1.3228: real time    1.3266
  RMM-DIIS:  cpu time    4.4213: real time    4.4332
    ORTHCH:  cpu time    0.2650: real time    0.2658
       DOS:  cpu time    0.0010: real time    0.0006
    CHARGE:  cpu time    0.6099: real time    0.6131
    MIXING:  cpu time    0.0560: real time    0.0562
    --------------------------------------------
      LOOP:  cpu time    8.0078: real time    8.0313

 eigenvalue-minimisations  :   168
 total energy-change (2. order) : 0.9249235E-02  (-0.2723426E-02)
 number of electron     123.9999996 magnetization 
 augmentation part        5.9065429 magnetization 

 Broyden mixing:
  rms(total) = 0.14496E-01    rms(broyden)= 0.14491E-01
  rms(prec ) = 0.27178E-01
  weight for this iteration     100.00

 eigenvalues of (default mixing * dielectric matrix)
  average eigenvalue GAMMA=   1.8472
  2.9765  2.3491  1.7648  1.7648  1.0162  1.2120

 Free energy of the ion-electron system (eV)
  ---------------------------------------------------
  alpha Z        PSCENC =         8.32042091
  Ewald energy   TEWEN  =     13644.46535109
  -Hartree energ DENC   =    -18073.32975207
  -exchange      EXHF   =         0.00000000
  -V(xc)+E(xc)   XCENC  =       459.92863716
  PAW double counting   =     10176.85166828   -10201.10983343
  entropy T*S    EENTRO =        -0.00000000
  eigenvalues    EBANDS =     -1625.71000493
  atomic energy  EATOM  =      5345.17153341
  Solvation  Ediel_sol  =         0.00000000
  ---------------------------------------------------
  free energy    TOTEN  =      -265.41197959 eV

  energy without entropy =     -265.41197959  energy(sigma->0) =     -265.41197959


--------------------------------------------------------------------------------------------------------




--------------------------------------- Iteration      1(  14)  ---------------------------------------


    POTLOK:  cpu time    1.3308: real time    1.3341
    SETDIJ:  cpu time    0.0070: real time    0.0078
    EDDIAG:  cpu time    1.3218: real time    1.3252
  RMM-DIIS:  cpu time    4.3493: real time    4.3610
    ORTHCH:  cpu time    0.2740: real time    0.2746
       DOS:  cpu time    0.0010: real time    0.0003
    CHARGE:  cpu time    0.6109: real time    0.6130
    MIXING:  cpu time    0.0530: real time    0.0534
    --------------------------------------------
      LOOP:  cpu time    7.9488: real time    7.9694

 eigenvalue-minimisations  :   168
 total energy-change (2. order) :-0.9005559E-02  (-0.1254701E-02)
 number of electron     123.9999996 magnetization 
 augmentation part        5.9016205 magnetization 

 Broyden mixing:
  rms(total) = 0.89031E-02    rms(broyden)= 0.88958E-02
  rms(prec ) = 0.15527E-01
  weight for this iteration     100.00

 eigenvalues of (default mixing * dielectric matrix)
  average eigenvalue GAMMA=   1.8799
  4.1101  2.3396  1.8247  1.8247  1.0839  1.0839  0.8923

 Free energy of the ion-electron system (eV)
  ---------------------------------------------------
  alpha Z        PSCENC =         8.32042091
  Ewald energy   TEWEN  =     13644.46535109
  -Hartree energ DENC   =    -18086.20251023
  -exchange      EXHF   =         0.00000000
  -V(xc)+E(xc)   XCENC  =       460.07880257
  PAW double counting   =     10174.75934940   -10199.02351991
  entropy T*S    EENTRO =        -0.00000000
  eigenvalues    EBANDS =     -1612.99041238
  atomic energy  EATOM  =      5345.17153341
  Solvation  Ediel_sol  =         0.00000000
  ---------------------------------------------------
  free energy    TOTEN  =      -265.42098515 eV

  energy without entropy =     -265.42098515  energy(sigma->0) =     -265.42098515


--------------------------------------------------------------------------------------------------------




--------------------------------------- Iteration      1(  15)  ---------------------------------------


    POTLOK:  cpu time    1.3218: real time    1.3333
    SETDIJ:  cpu time    0.0080: real time    0.0078
    EDDIAG:  cpu time    1.3188: real time    1.3243
  RMM-DIIS:  cpu time    4.5763: real time    4.5885
    ORTHCH:  cpu time    0.2650: real time    0.2662
       DOS:  cpu time    0.0000: real time    0.0002
    CHARGE:  cpu time    0.6129: real time    0.6145
    MIXING:  cpu time    0.0630: real time    0.0624
    --------------------------------------------
      LOOP:  cpu time    8.1648: real time    8.1971

 eigenvalue-minimisations  :   170
 total energy-change (2. order) :-0.5964750E-02  (-0.3478500E-03)
 number of electron     123.9999996 magnetization 
 augmentation part        5.9017501 magnetization 

 Broyden mixing:
  rms(total) = 0.56944E-02    rms(broyden)= 0.56914E-02
  rms(prec ) = 0.99880E-02
  weight for this iteration     100.00

 eigenvalues of (default mixing * dielectric matrix)
  average eigenvalue GAMMA=   2.1029
  5.5067  2.5157  2.0257  2.0257  1.6431  1.1478  1.0267  0.9323

 Free energy of the ion-electron system (eV)
  ---------------------------------------------------
  alpha Z        PSCENC =         8.32042091
  Ewald energy   TEWEN  =     13644.46535109
  -Hartree energ DENC   =    -18091.80400549
  -exchange      EXHF   =         0.00000000
  -V(xc)+E(xc)   XCENC  =       460.09211600
  PAW double counting   =     10156.94058724   -10181.19973513
  entropy T*S    EENTRO =        -0.00000000
  eigenvalues    EBANDS =     -1607.41321792
  atomic energy  EATOM  =      5345.17153341
  Solvation  Ediel_sol  =         0.00000000
  ---------------------------------------------------
  free energy    TOTEN  =      -265.42694990 eV

  energy without entropy =     -265.42694990  energy(sigma->0) =     -265.42694990


--------------------------------------------------------------------------------------------------------




--------------------------------------- Iteration      1(  16)  ---------------------------------------


    POTLOK:  cpu time    1.3268: real time    1.3312
    SETDIJ:  cpu time    0.0080: real time    0.0079
    EDDIAG:  cpu time    1.3208: real time    1.3236
  RMM-DIIS:  cpu time    4.3843: real time    4.3981
    ORTHCH:  cpu time    0.2650: real time    0.2665
       DOS:  cpu time    0.0010: real time    0.0004
    CHARGE:  cpu time    0.6109: real time    0.6123
    MIXING:  cpu time    0.0610: real time    0.0616
    --------------------------------------------
      LOOP:  cpu time    7.9778: real time    8.0017

 eigenvalue-minimisations  :   168
 total energy-change (2. order) :-0.1523119E-01  (-0.2913474E-03)
 number of electron     123.9999996 magnetization 
 augmentation part        5.9029375 magnetization 

 Broyden mixing:
  rms(total) = 0.47864E-02    rms(broyden)= 0.47847E-02
  rms(prec ) = 0.65307E-02
  weight for this iteration     100.00

 eigenvalues of (default mixing * dielectric matrix)
  average eigenvalue GAMMA=   2.0640
  5.8940  2.7608  2.3155  1.8203  1.2897  1.2897  1.2134  0.9648  1.0275

 Free energy of the ion-electron system (eV)
  ---------------------------------------------------
  alpha Z        PSCENC =         8.32042091
  Ewald energy   TEWEN  =     13644.46535109
  -Hartree energ DENC   =    -18095.08680882
  -exchange      EXHF   =         0.00000000
  -V(xc)+E(xc)   XCENC  =       460.06261243
  PAW double counting   =     10152.54962822   -10176.80252794
  entropy T*S    EENTRO =        -0.00000000
  eigenvalues    EBANDS =     -1604.12239038
  atomic energy  EATOM  =      5345.17153341
  Solvation  Ediel_sol  =         0.00000000
  ---------------------------------------------------
  free energy    TOTEN  =      -265.44218109 eV

  energy without entropy =     -265.44218109  energy(sigma->0) =     -265.44218109


--------------------------------------------------------------------------------------------------------




--------------------------------------- Iteration      1(  17)  ---------------------------------------


    POTLOK:  cpu time    1.3188: real time    1.3219
    SETDIJ:  cpu time    0.0070: real time    0.0079
    EDDIAG:  cpu time    1.3228: real time    1.3256
  RMM-DIIS:  cpu time    4.5963: real time    4.6106
    ORTHCH:  cpu time    0.2650: real time    0.2651
       DOS:  cpu time    0.0000: real time    0.0003
    CHARGE:  cpu time    0.6079: real time    0.6093
    MIXING:  cpu time    0.0690: real time    0.0695
    --------------------------------------------
      LOOP:  cpu time    8.1868: real time    8.2102

 eigenvalue-minimisations  :   173
 total energy-change (2. order) :-0.4673513E-02  (-0.9624355E-04)
 number of electron     123.9999996 magnetization 
 augmentation part        5.9015314 magnetization 

 Broyden mixing:
  rms(total) = 0.23896E-02    rms(broyden)= 0.23881E-02
  rms(prec ) = 0.38730E-02
  weight for this iteration     100.00

 eigenvalues of (default mixing * dielectric matrix)
  average eigenvalue GAMMA=   2.2475
  6.7597  3.5996  2.3385  2.3385  1.7501  1.5102  1.0838  1.0170  1.0389  1.0389

 Free energy of the ion-electron system (eV)
  ---------------------------------------------------
  alpha Z        PSCENC =         8.32042091
  Ewald energy   TEWEN  =     13644.46535109
  -Hartree energ DENC   =    -18096.21131440
  -exchange      EXHF   =         0.00000000
  -V(xc)+E(xc)   XCENC  =       460.07392791
  PAW double counting   =     10156.33969543   -10180.59769712
  entropy T*S    EENTRO =        -0.00000000
  eigenvalues    EBANDS =     -1603.00877182
  atomic energy  EATOM  =      5345.17153341
  Solvation  Ediel_sol  =         0.00000000
  ---------------------------------------------------
  free energy    TOTEN  =      -265.44685460 eV

  energy without entropy =     -265.44685460  energy(sigma->0) =     -265.44685460


--------------------------------------------------------------------------------------------------------




--------------------------------------- Iteration      1(  18)  ---------------------------------------


    POTLOK:  cpu time    1.3118: real time    1.3148
    SETDIJ:  cpu time    0.0080: real time    0.0078
    EDDIAG:  cpu time    1.3268: real time    1.3301
  RMM-DIIS:  cpu time    4.3583: real time    4.3698
    ORTHCH:  cpu time    0.2660: real time    0.2667
       DOS:  cpu time    0.0000: real time    0.0003
    CHARGE:  cpu time    0.6079: real time    0.6117
    MIXING:  cpu time    0.0730: real time    0.0732
    --------------------------------------------
      LOOP:  cpu time    7.9518: real time    7.9743

 eigenvalue-minimisations  :   163
 total energy-change (2. order) :-0.6952850E-02  (-0.1084221E-03)
 number of electron     123.9999996 magnetization 
 augmentation part        5.9014492 magnetization 

 Broyden mixing:
  rms(total) = 0.15426E-02    rms(broyden)= 0.15423E-02
  rms(prec ) = 0.20437E-02
  weight for this iteration     100.00

 eigenvalues of (default mixing * dielectric matrix)
  average eigenvalue GAMMA=   2.1933
  7.0467  3.9106  2.3136  2.3136  1.8455  1.2088  1.2088  0.9894  0.9894  1.1498
  1.1498

 Free energy of the ion-electron system (eV)
  ---------------------------------------------------
  alpha Z        PSCENC =         8.32042091
  Ewald energy   TEWEN  =     13644.46535109
  -Hartree energ DENC   =    -18096.61604549
  -exchange      EXHF   =         0.00000000
  -V(xc)+E(xc)   XCENC  =       460.05012282
  PAW double counting   =     10158.31875803   -10182.57450973
  entropy T*S    EENTRO =        -0.00000000
  eigenvalues    EBANDS =     -1602.58943848
  atomic energy  EATOM  =      5345.17153341
  Solvation  Ediel_sol  =         0.00000000
  ---------------------------------------------------
  free energy    TOTEN  =      -265.45380745 eV

  energy without entropy =     -265.45380745  energy(sigma->0) =     -265.45380745


--------------------------------------------------------------------------------------------------------




--------------------------------------- Iteration      1(  19)  ---------------------------------------


    POTLOK:  cpu time    1.3068: real time    1.3111
    SETDIJ:  cpu time    0.0080: real time    0.0081
    EDDIAG:  cpu time    1.3218: real time    1.3246
  RMM-DIIS:  cpu time    4.1554: real time    4.1667
    ORTHCH:  cpu time    0.2640: real time    0.2648
       DOS:  cpu time    0.0000: real time    0.0005
    CHARGE:  cpu time    0.6109: real time    0.6119
    MIXING:  cpu time    0.0780: real time    0.0783
    --------------------------------------------
      LOOP:  cpu time    7.7448: real time    7.7660

 eigenvalue-minimisations  :   158
 total energy-change (2. order) :-0.7898415E-03  (-0.1780989E-04)
 number of electron     123.9999996 magnetization 
 augmentation part        5.9017214 magnetization 

 Broyden mixing:
  rms(total) = 0.73384E-03    rms(broyden)= 0.73343E-03
  rms(prec ) = 0.12178E-02
  weight for this iteration     100.00

 eigenvalues of (default mixing * dielectric matrix)
  average eigenvalue GAMMA=   2.2843
  7.3840  4.7191  2.5019  2.5019  2.0868  1.6956  1.1475  1.1475  1.2333  1.1103
  0.9824  0.9012

 Free energy of the ion-electron system (eV)
  ---------------------------------------------------
  alpha Z        PSCENC =         8.32042091
  Ewald energy   TEWEN  =     13644.46535109
  -Hartree energ DENC   =    -18096.76259910
  -exchange      EXHF   =         0.00000000
  -V(xc)+E(xc)   XCENC  =       460.04828265
  PAW double counting   =     10157.97918463   -10182.23418587
  entropy T*S    EENTRO =        -0.00000000
  eigenvalues    EBANDS =     -1602.44258500
  atomic energy  EATOM  =      5345.17153341
  Solvation  Ediel_sol  =         0.00000000
  ---------------------------------------------------
  free energy    TOTEN  =      -265.45459729 eV

  energy without entropy =     -265.45459729  energy(sigma->0) =     -265.45459729


--------------------------------------------------------------------------------------------------------




--------------------------------------- Iteration      1(  20)  ---------------------------------------


    POTLOK:  cpu time    1.3068: real time    1.3206
    SETDIJ:  cpu time    0.0080: real time    0.0078
    EDDIAG:  cpu time    1.3168: real time    1.3214
  RMM-DIIS:  cpu time    3.8264: real time    3.8366
    ORTHCH:  cpu time    0.2660: real time    0.2665
       DOS:  cpu time    0.0000: real time    0.0003
    CHARGE:  cpu time    0.6109: real time    0.6129
    MIXING:  cpu time    0.0840: real time    0.0837
    --------------------------------------------
      LOOP:  cpu time    7.4189: real time    7.4499

 eigenvalue-minimisations  :   141
 total energy-change (2. order) :-0.1290052E-02  (-0.1002081E-04)
 number of electron     123.9999996 magnetization 
 augmentation part        5.9016686 magnetization 

 Broyden mixing:
  rms(total) = 0.44282E-03    rms(broyden)= 0.44274E-03
  rms(prec ) = 0.64766E-03
  weight for this iteration     100.00

 eigenvalues of (default mixing * dielectric matrix)
  average eigenvalue GAMMA=   2.2659
  7.7568  5.1282  2.7848  2.4154  1.9150  1.9150  1.2224  1.2224  1.1099  1.1099
  1.0013  1.0013  0.8742

 Free energy of the ion-electron system (eV)
  ---------------------------------------------------
  alpha Z        PSCENC =         8.32042091
  Ewald energy   TEWEN  =     13644.46535109
  -Hartree energ DENC   =    -18096.82838155
  -exchange      EXHF   =         0.00000000
  -V(xc)+E(xc)   XCENC  =       460.04638911
  PAW double counting   =     10156.99006397   -10181.24571429
  entropy T*S    EENTRO =        -0.00000000
  eigenvalues    EBANDS =     -1602.37554999
  atomic energy  EATOM  =      5345.17153341
  Solvation  Ediel_sol  =         0.00000000
  ---------------------------------------------------
  free energy    TOTEN  =      -265.45588734 eV

  energy without entropy =     -265.45588734  energy(sigma->0) =     -265.45588734


--------------------------------------------------------------------------------------------------------




--------------------------------------- Iteration      1(  21)  ---------------------------------------


    POTLOK:  cpu time    1.3068: real time    1.3112
    SETDIJ:  cpu time    0.0080: real time    0.0078
    EDDIAG:  cpu time    1.3228: real time    1.3260
  RMM-DIIS:  cpu time    3.0685: real time    3.0805
    ORTHCH:  cpu time    0.2660: real time    0.2661
       DOS:  cpu time    0.0000: real time    0.0002
    CHARGE:  cpu time    0.6099: real time    0.6111
    MIXING:  cpu time    0.0910: real time    0.0913
    --------------------------------------------
      LOOP:  cpu time    6.6730: real time    6.6941

 eigenvalue-minimisations  :   110
 total energy-change (2. order) :-0.2193117E-03  (-0.1478952E-05)
 number of electron     123.9999996 magnetization 
 augmentation part        5.9016128 magnetization 

 Broyden mixing:
  rms(total) = 0.24539E-03    rms(broyden)= 0.24532E-03
  rms(prec ) = 0.41896E-03
  weight for this iteration     100.00

 eigenvalues of (default mixing * dielectric matrix)
  average eigenvalue GAMMA=   2.3298
  7.8395  5.8165  3.0749  2.3331  2.3331  1.9593  1.7838  1.1820  1.1820  1.1222
  1.1222  0.9956  0.9956  0.8777

 Free energy of the ion-electron system (eV)
  ---------------------------------------------------
  alpha Z        PSCENC =         8.32042091
  Ewald energy   TEWEN  =     13644.46535109
  -Hartree energ DENC   =    -18096.89572939
  -exchange      EXHF   =         0.00000000
  -V(xc)+E(xc)   XCENC  =       460.04677869
  PAW double counting   =     10157.11514238   -10181.37058451
  entropy T*S    EENTRO =        -0.00000000
  eigenvalues    EBANDS =     -1602.30901922
  atomic energy  EATOM  =      5345.17153341
  Solvation  Ediel_sol  =         0.00000000
  ---------------------------------------------------
  free energy    TOTEN  =      -265.45610666 eV

  energy without entropy =     -265.45610666  energy(sigma->0) =     -265.45610666


--------------------------------------------------------------------------------------------------------




--------------------------------------- Iteration      1(  22)  ---------------------------------------


    POTLOK:  cpu time    1.3058: real time    1.3090
    SETDIJ:  cpu time    0.0080: real time    0.0079
    EDDIAG:  cpu time    1.3218: real time    1.3255
  RMM-DIIS:  cpu time    2.9306: real time    2.9388
    ORTHCH:  cpu time    0.2650: real time    0.2661
       DOS:  cpu time    0.0000: real time    0.0002
    CHARGE:  cpu time    0.6089: real time    0.6104
    MIXING:  cpu time    0.1040: real time    0.1037
    --------------------------------------------
      LOOP:  cpu time    6.5440: real time    6.5617

 eigenvalue-minimisations  :   100
 total energy-change (2. order) :-0.2911168E-03  (-0.1176517E-05)
 number of electron     123.9999996 magnetization 
 augmentation part        5.9016047 magnetization 

 Broyden mixing:
  rms(total) = 0.11647E-03    rms(broyden)= 0.11640E-03
  rms(prec ) = 0.19546E-03
  weight for this iteration     100.00

 eigenvalues of (default mixing * dielectric matrix)
  average eigenvalue GAMMA=   2.3447
  8.3119  5.9400  3.6557  2.5269  2.2684  1.9052  1.6690  1.2167  1.2167  1.2826
  1.2826  0.9886  0.9886  1.0076  0.9098

 Free energy of the ion-electron system (eV)
  ---------------------------------------------------
  alpha Z        PSCENC =         8.32042091
  Ewald energy   TEWEN  =     13644.46535109
  -Hartree energ DENC   =    -18096.96355476
  -exchange      EXHF   =         0.00000000
  -V(xc)+E(xc)   XCENC  =       460.04691551
  PAW double counting   =     10157.13255354   -10181.38789033
  entropy T*S    EENTRO =        -0.00000000
  eigenvalues    EBANDS =     -1602.24172713
  atomic energy  EATOM  =      5345.17153341
  Solvation  Ediel_sol  =         0.00000000
  ---------------------------------------------------
  free energy    TOTEN  =      -265.45639777 eV

  energy without entropy =     -265.45639777  energy(sigma->0) =     -265.45639777


--------------------------------------------------------------------------------------------------------




--------------------------------------- Iteration      1(  23)  ---------------------------------------


    POTLOK:  cpu time    1.3088: real time    1.3224
    SETDIJ:  cpu time    0.0080: real time    0.0078
    EDDIAG:  cpu time    1.3208: real time    1.3245
  RMM-DIIS:  cpu time    2.6146: real time    2.6211
    ORTHCH:  cpu time    0.2650: real time    0.2653
       DOS:  cpu time    0.0000: real time    0.0002
    CHARGE:  cpu time    0.6119: real time    0.6134
    MIXING:  cpu time    0.1050: real time    0.1054
    --------------------------------------------
      LOOP:  cpu time    6.2341: real time    6.2603

 eigenvalue-minimisations  :    83
 total energy-change (2. order) :-0.7315271E-04  (-0.3810085E-06)
 number of electron     123.9999996 magnetization 
 augmentation part        5.9016127 magnetization 

 Broyden mixing:
  rms(total) = 0.79464E-04    rms(broyden)= 0.79443E-04
  rms(prec ) = 0.12505E-03
  weight for this iteration     100.00

 eigenvalues of (default mixing * dielectric matrix)
  average eigenvalue GAMMA=   2.4089
  8.4348  6.6077  4.1151  2.7480  2.3324  2.1072  1.8951  1.7165  1.2016  1.2016
  1.1386  1.1386  1.0129  1.0129  0.9988  0.8805

 Free energy of the ion-electron system (eV)
  ---------------------------------------------------
  alpha Z        PSCENC =         8.32042091
  Ewald energy   TEWEN  =     13644.46535109
  -Hartree energ DENC   =    -18096.98869556
  -exchange      EXHF   =         0.00000000
  -V(xc)+E(xc)   XCENC  =       460.04683029
  PAW double counting   =     10156.99973411   -10181.25504636
  entropy T*S    EENTRO =        -0.00000000
  eigenvalues    EBANDS =     -1602.21659881
  atomic energy  EATOM  =      5345.17153341
  Solvation  Ediel_sol  =         0.00000000
  ---------------------------------------------------
  free energy    TOTEN  =      -265.45647093 eV

  energy without entropy =     -265.45647093  energy(sigma->0) =     -265.45647093


--------------------------------------------------------------------------------------------------------




--------------------------------------- Iteration      1(  24)  ---------------------------------------


    POTLOK:  cpu time    1.3158: real time    1.3185
    SETDIJ:  cpu time    0.0080: real time    0.0081
    EDDIAG:  cpu time    1.3208: real time    1.3251
  RMM-DIIS:  cpu time    2.5416: real time    2.5533
    ORTHCH:  cpu time    0.2660: real time    0.2668
       DOS:  cpu time    0.0000: real time    0.0003
    CHARGE:  cpu time    0.6109: real time    0.6125
    MIXING:  cpu time    0.1140: real time    0.1134
    --------------------------------------------
      LOOP:  cpu time    6.1771: real time    6.1978

 eigenvalue-minimisations  :    78
 total energy-change (2. order) :-0.4000287E-04  (-0.1952465E-06)
 number of electron     123.9999996 magnetization 
 augmentation part        5.9016090 magnetization 

 Broyden mixing:
  rms(total) = 0.38407E-04    rms(broyden)= 0.38393E-04
  rms(prec ) = 0.64239E-04
  weight for this iteration     100.00

 eigenvalues of (default mixing * dielectric matrix)
  average eigenvalue GAMMA=   2.4153
  8.7386  6.6860  4.5328  2.8370  2.3531  2.1853  1.9021  1.6613  1.6613  1.1995
  1.1995  1.1889  1.0257  1.0257  0.9842  0.9842  0.8946

 Free energy of the ion-electron system (eV)
  ---------------------------------------------------
  alpha Z        PSCENC =         8.32042091
  Ewald energy   TEWEN  =     13644.46535109
  -Hartree energ DENC   =    -18096.99473981
  -exchange      EXHF   =         0.00000000
  -V(xc)+E(xc)   XCENC  =       460.04666857
  PAW double counting   =     10157.10619478   -10181.36154443
  entropy T*S    EENTRO =        -0.00000000
  eigenvalues    EBANDS =     -1602.21039545
  atomic energy  EATOM  =      5345.17153341
  Solvation  Ediel_sol  =         0.00000000
  ---------------------------------------------------
  free energy    TOTEN  =      -265.45651093 eV

  energy without entropy =     -265.45651093  energy(sigma->0) =     -265.45651093


--------------------------------------------------------------------------------------------------------




--------------------------------------- Iteration      1(  25)  ---------------------------------------


    POTLOK:  cpu time    1.3118: real time    1.3158
    SETDIJ:  cpu time    0.0080: real time    0.0078
    EDDIAG:  cpu time    1.3268: real time    1.3306
  RMM-DIIS:  cpu time    2.4136: real time    2.4193
    ORTHCH:  cpu time    0.2650: real time    0.2661
       DOS:  cpu time    0.0000: real time    0.0002
    CHARGE:  cpu time    0.6109: real time    0.6123
    MIXING:  cpu time    0.1210: real time    0.1215
    --------------------------------------------
      LOOP:  cpu time    6.0571: real time    6.0737

 eigenvalue-minimisations  :    64
 total energy-change (2. order) :-0.1194522E-04  (-0.7388221E-07)
 number of electron     123.9999996 magnetization 
 augmentation part        5.9016006 magnetization 

 Broyden mixing:
  rms(total) = 0.32618E-04    rms(broyden)= 0.32597E-04
  rms(prec ) = 0.47382E-04
  weight for this iteration     100.00

 eigenvalues of (default mixing * dielectric matrix)
  average eigenvalue GAMMA=   2.4598
  8.8936  6.9183  4.8839  3.4019  2.5088  2.5088  1.9612  1.9612  1.2226  1.2226
  1.3319  1.3319  1.2550  1.0298  1.0298  0.9901  0.9003  0.9253

 Free energy of the ion-electron system (eV)
  ---------------------------------------------------
  alpha Z        PSCENC =         8.32042091
  Ewald energy   TEWEN  =     13644.46535109
  -Hartree energ DENC   =    -18097.00096485
  -exchange      EXHF   =         0.00000000
  -V(xc)+E(xc)   XCENC  =       460.04673493
  PAW double counting   =     10157.10116910   -10181.35654855
  entropy T*S    EENTRO =        -0.00000000
  eigenvalues    EBANDS =     -1602.20421890
  atomic energy  EATOM  =      5345.17153341
  Solvation  Ediel_sol  =         0.00000000
  ---------------------------------------------------
  free energy    TOTEN  =      -265.45652287 eV

  energy without entropy =     -265.45652287  energy(sigma->0) =     -265.45652287


--------------------------------------------------------------------------------------------------------




--------------------------------------- Iteration      1(  26)  ---------------------------------------


    POTLOK:  cpu time    1.3198: real time    1.3234
    SETDIJ:  cpu time    0.0080: real time    0.0079
    EDDIAG:  cpu time    1.3218: real time    1.3266
  RMM-DIIS:  cpu time    2.2617: real time    2.2679
    ORTHCH:  cpu time    0.2650: real time    0.2656
       DOS:  cpu time    0.0010: real time    0.0005
    --------------------------------------------
      LOOP:  cpu time    5.1772: real time    5.1919

 eigenvalue-minimisations  :    51
 total energy-change (2. order) :-0.8225210E-05  (-0.2353221E-07)
 number of electron     123.9999996 magnetization 
 augmentation part        5.9016006 magnetization 

 Free energy of the ion-electron system (eV)
  ---------------------------------------------------
  alpha Z        PSCENC =         8.32042091
  Ewald energy   TEWEN  =     13644.46535109
  -Hartree energ DENC   =    -18096.99793023
  -exchange      EXHF   =         0.00000000
  -V(xc)+E(xc)   XCENC  =       460.04658184
  PAW double counting   =     10157.09202257   -10181.34736706
  entropy T*S    EENTRO =        -0.00000000
  eigenvalues    EBANDS =     -1602.20714362
  atomic energy  EATOM  =      5345.17153341
  Solvation  Ediel_sol  =         0.00000000
  ---------------------------------------------------
  free energy    TOTEN  =      -265.45653110 eV

  energy without entropy =     -265.45653110  energy(sigma->0) =     -265.45653110


--------------------------------------------------------------------------------------------------------




 average (electrostatic) potential at core
  the test charge radii are     0.6991  0.5201  0.7215
  (the norm of the test charge is              1.0000)
       1 -60.0761       2 -58.6795       3 -58.6552       4 -58.3833       5 -58.4373
       6 -59.9344       7 -60.0189       8 -59.9503       9 -59.8405      10 -59.8991
      11 -58.4871      12 -60.0622      13 -58.3894      14 -58.6003      15 -58.4674
      16 -59.3735      17 -59.8984      18 -42.3329      19 -41.7292      20 -41.8400
      21 -44.7342      22 -42.3496      23 -42.4702      24 -42.3578      25 -42.1638
      26 -41.9544      27 -44.4682      28 -41.8970      29 -41.7580      30 -42.1643
      31 -41.8090      32 -41.6223      33 -41.6479      34 -43.5399      35 -42.2496
      36 -42.3750      37 -42.2347      38 -81.0175      39 -81.5630      40 -80.9817
      41 -80.6143      42 -79.7471      43 -81.3718
 
 
 
 E-fermi :  -4.7139     XC(G=0):  -0.6471     alpha+bet : -0.3382


 k-point     1 :       0.0000    0.0000    0.0000
  band No.  band energies     occupation 
      1     -27.0153      2.00000
      2     -26.8477      2.00000
      3     -26.3624      2.00000
      4     -26.1369      2.00000
      5     -25.6204      2.00000
      6     -24.8458      2.00000
      7     -21.0487      2.00000
      8     -20.9080      2.00000
      9     -19.4387      2.00000
     10     -18.6484      2.00000
     11     -18.5505      2.00000
     12     -18.3639      2.00000
     13     -17.9156      2.00000
     14     -17.3051      2.00000
     15     -17.0658      2.00000
     16     -16.4591      2.00000
     17     -15.4393      2.00000
     18     -14.8551      2.00000
     19     -14.7114      2.00000
     20     -14.5711      2.00000
     21     -14.1185      2.00000
     22     -13.5882      2.00000
     23     -13.2190      2.00000
     24     -12.9271      2.00000
     25     -12.6350      2.00000
     26     -12.2660      2.00000
     27     -11.8900      2.00000
     28     -11.7929      2.00000
     29     -11.5576      2.00000
     30     -11.5147      2.00000
     31     -11.3129      2.00000
     32     -11.2512      2.00000
     33     -10.9626      2.00000
     34     -10.8678      2.00000
     35     -10.7411      2.00000
     36     -10.5730      2.00000
     37     -10.4760      2.00000
     38     -10.1515      2.00000
     39     -10.0359      2.00000
     40      -9.9028      2.00000
     41      -9.7810      2.00000
     42      -9.3270      2.00000
     43      -9.1140      2.00000
     44      -9.0439      2.00000
     45      -8.9388      2.00000
     46      -8.6916      2.00000
     47      -8.5507      2.00000
     48      -8.4228      2.00000
     49      -8.2228      2.00000
     50      -8.0964      2.00000
     51      -8.0355      2.00000
     52      -7.8403      2.00000
     53      -7.7602      2.00000
     54      -7.6206      2.00000
     55      -7.4600      2.00000
     56      -6.7940      2.00000
     57      -6.3229      2.00000
     58      -5.9082      2.00000
     59      -5.7167      2.00000
     60      -5.6214      2.00000
     61      -5.0668      2.00000
     62      -4.8747      2.00000
     63      -0.9832      0.00000
     64      -0.8531      0.00000
     65      -0.6986      0.00000
     66      -0.6287      0.00000
     67      -0.5151      0.00000
     68      -0.3664      0.00000
     69      -0.3193      0.00000
     70      -0.2764      0.00000
     71       0.0125      0.00000
     72       0.1039      0.00000
     73       0.2426      0.00000
     74       0.3220      0.00000
     75       0.3525      0.00000
     76       0.3920      0.00000
     77       0.4322      0.00000
     78       0.5458      0.00000
     79       0.5778      0.00000
     80       0.6729      0.00000
     81       0.8270      0.00000
     82       0.8927      0.00000
     83       1.0144      0.00000
     84       1.1936      0.00000


--------------------------------------------------------------------------------------------------------


 soft charge-density along one line, spin component           1
         0         1         2         3         4         5         6         7         8         9
 total charge-density along one line
 
 pseudopotential strength for first ion, spin component:           1
 10.329  13.739  -0.007  -0.001  -0.003   0.019   0.002   0.010
 13.739  18.273  -0.009  -0.001  -0.004   0.025   0.003   0.013
 -0.007  -0.009  -4.456   0.001  -0.006   8.720  -0.002   0.011
 -0.001  -0.001   0.001  -4.443  -0.005  -0.002   8.695   0.007
 -0.003  -0.004  -0.006  -0.005  -4.446   0.011   0.007   8.700
  0.019   0.025   8.720  -0.002   0.011 -19.208   0.002  -0.022
  0.002   0.003  -0.002   8.695   0.007   0.002 -19.159  -0.009
  0.010   0.013   0.011   0.007   8.700  -0.022  -0.009 -19.169
 total augmentation occupancy for first ion, spin component:           1
  8.112  -3.673   0.054  -0.010   0.002  -0.021  -0.006  -0.017
 -3.673   1.762   0.067   0.015   0.049   0.023   0.005   0.015
  0.054   0.067   1.547  -0.095   0.008   0.158  -0.015   0.020
 -0.010   0.015  -0.095   1.569   0.292  -0.015   0.116   0.047
  0.002   0.049   0.008   0.292   1.600   0.020   0.047   0.129
 -0.021   0.023   0.158  -0.015   0.020   0.019  -0.002   0.004
 -0.006   0.005  -0.015   0.116   0.047  -0.002   0.010   0.006
 -0.017   0.015   0.020   0.047   0.129   0.004   0.006   0.012


------------------------ aborting loop because EDIFF is reached ----------------------------------------


    CHARGE:  cpu time    0.6099: real time    0.6117
    FORLOC:  cpu time    0.2970: real time    0.2974
    FORNL :  cpu time    1.3888: real time    1.3926
    STRESS:  cpu time    4.1604: real time    4.1703
    FORCOR:  cpu time    1.4388: real time    1.4442
    FORHAR:  cpu time    0.5919: real time    0.5942
    MIXING:  cpu time    0.1280: real time    0.1281
    OFIELD:  cpu time    0.0000: real time    0.0001

  DFT-D2 method for vdW energy calculation
  -------------------------------------------------------------------

  Parameters of vdW forcefield:
         C6(Jnm^6/mol)     R0(A)
   -----------------------------
   C        1.750          1.452
   H        0.140          1.001
   O        0.700          1.342

  IVDW =   1
  VDW_RADIUS =    40.000 A
  VDW_S6 =     0.750
  VDW_SR =     1.000
  VDW_D =    20.000
  LVDW_EWALD = F

  Number of pair interactions contributing to vdW energy:   28962
  Edisp (eV):   -1.16373
    FORVDW:  cpu time    0.0270: real time    0.0305

  FORCE on cell =-STRESS in cart. coord.  units (eV):
  Direction    XX          YY          ZZ          XY          YZ          ZX
[...]
   0.130E+03 -.199E+03 0.142E+03   -.130E+03 0.201E+03 -.142E+03   -.700E-01 -.185E+01 0.597E+00   0.341E-04 0.430E-04 -.605E-05
   0.107E+03 -.506E+02 0.813E+02   -.102E+03 0.534E+02 -.781E+02   -.474E+01 -.276E+01 -.320E+01   -.310E-04 -.441E-04 -.195E-04
   0.289E+02 0.257E+03 -.111E+03   -.265E+02 -.262E+03 0.115E+03   -.234E+01 0.497E+01 -.417E+01   -.187E-04 0.545E-04 -.347E-04
   0.116E+03 0.425E+01 -.179E+03   -.117E+03 -.980E+01 0.179E+03   0.110E+01 0.553E+01 0.180E+00   0.479E-05 -.380E-06 -.768E-04
   0.223E+02 0.128E+03 -.120E+03   -.236E+02 -.131E+03 0.126E+03   0.135E+01 0.306E+01 -.575E+01   -.727E-04 0.405E-04 -.122E-03
   -.917E+02 -.655E+02 0.110E+03   0.977E+02 0.660E+02 -.112E+03   -.601E+01 -.511E+00 0.209E+01   -.149E-03 0.134E-05 0.379E-04
   -.586E+02 -.244E+03 0.978E+02   0.589E+02 0.246E+03 -.977E+02   -.260E+00 -.156E+01 -.141E+00   -.813E-04 0.757E-04 -.208E-04
   -.127E+03 0.526E+02 0.865E+02   0.130E+03 -.475E+02 -.892E+02   -.338E+01 -.505E+01 0.269E+01   -.124E-03 -.791E-04 0.596E-04
   -.168E+03 -.198E+03 0.126E+03   0.169E+03 0.199E+03 -.127E+03   -.803E+00 -.815E+00 0.561E+00   -.286E-04 0.435E-04 -.426E-04
   -.222E+03 0.122E+03 0.963E+02   0.224E+03 -.123E+03 -.969E+02   -.169E+01 0.205E+00 0.621E+00   0.342E-06 -.327E-04 0.251E-07
   -.252E+03 -.204E+02 0.131E+03   0.253E+03 0.210E+02 -.131E+03   -.102E+01 -.594E+00 0.523E+00   -.793E-05 0.190E-04 -.285E-04
   -.111E+03 0.123E+03 -.238E+03   0.111E+03 -.128E+03 0.237E+03   0.471E+00 0.477E+01 0.871E+00   -.307E-04 0.255E-04 -.678E-04
   -.106E+03 0.296E+03 0.147E+02   0.109E+03 -.302E+03 -.151E+02   -.305E+01 0.593E+01 0.474E+00   -.259E-04 0.190E-04 0.246E-04
   -.131E+02 0.651E+02 -.642E+02   0.154E+02 -.689E+02 0.677E+02   -.232E+01 0.383E+01 -.349E+01   0.107E-05 0.735E-05 -.415E-06
   0.991E+01 -.100E+03 0.192E+02   -.804E+01 0.106E+03 -.192E+02   -.189E+01 -.546E+01 -.434E-01   0.744E-05 0.581E-05 -.174E-05
   0.455E+02 -.736E+02 0.591E+02   -.479E+02 0.774E+02 -.627E+02   0.244E+01 -.385E+01 0.353E+01   0.175E-04 0.629E-05 0.205E-05
   0.699E+02 0.926E+02 0.269E+02   -.718E+02 -.101E+03 -.257E+02   0.187E+01 0.799E+01 -.121E+01   0.285E-04 0.188E-04 0.139E-04
   0.229E+02 0.274E+02 -.850E+02   -.234E+02 -.259E+02 0.904E+02   0.571E+00 -.151E+01 -.538E+01   -.132E-06 0.101E-04 0.137E-04
   0.428E+02 0.886E+02 -.126E+01   -.459E+02 -.934E+02 0.285E+00   0.312E+01 0.477E+01 0.987E+00   -.309E-05 -.186E-04 -.369E-05
   -.501E+02 0.645E+02 0.113E+01   0.555E+02 -.656E+02 -.221E+01   -.540E+01 0.105E+01 0.109E+01   0.200E-04 -.758E-05 -.347E-05
   0.388E+02 0.159E+02 -.111E+03   -.402E+02 -.175E+02 0.116E+03   0.134E+01 0.154E+01 -.529E+01   -.107E-05 0.299E-05 -.258E-04
   0.177E+02 0.937E+02 -.172E+02   -.187E+02 -.993E+02 0.163E+02   0.105E+01 0.554E+01 0.852E+00   0.923E-07 0.238E-04 -.111E-04
   -.255E+02 -.977E+02 0.673E+02   0.291E+02 0.998E+02 -.744E+02   -.354E+01 -.213E+01 0.710E+01   -.912E-05 -.690E-05 -.417E-05
   0.948E+01 -.999E+02 0.181E+02   -.123E+02 0.105E+03 -.175E+02   0.279E+01 -.499E+01 -.596E+00   -.129E-04 0.101E-04 -.870E-05
   -.504E+02 -.779E+02 0.380E+02   0.530E+02 0.828E+02 -.398E+02   -.250E+01 -.484E+01 0.186E+01   -.248E-04 0.768E-06 -.191E-05
   -.721E+02 0.676E+02 0.250E+02   0.749E+02 -.726E+02 -.255E+02   -.282E+01 0.498E+01 0.518E+00   -.969E-05 -.633E-06 0.552E-05
   -.878E+02 -.567E+00 0.426E+02   0.930E+02 0.281E+00 -.449E+02   -.527E+01 0.285E+00 0.230E+01   -.287E-04 0.208E-06 0.715E-05
   0.363E+01 0.504E+02 -.102E+03   -.543E+01 -.530E+02 0.107E+03   0.184E+01 0.262E+01 -.436E+01   -.135E-04 -.156E-04 0.135E-04
   -.810E+02 0.453E+02 -.402E+02   0.857E+02 -.480E+02 0.387E+02   -.473E+01 0.272E+01 0.164E+01   0.918E-05 -.120E-04 -.186E-04
   0.345E+02 -.961E+02 -.550E+02   -.411E+02 0.101E+03 0.548E+02   0.655E+01 -.472E+01 0.283E+00   0.141E-04 -.923E-05 -.131E-04
   -.743E+02 0.510E+02 -.398E+02   0.790E+02 -.511E+02 0.429E+02   -.471E+01 0.528E-01 -.303E+01   0.129E-04 -.830E-05 0.168E-04
   0.227E+02 0.907E+02 -.211E+02   -.263E+02 -.947E+02 0.232E+02   0.364E+01 0.395E+01 -.208E+01   -.146E-04 -.285E-04 0.153E-04
   -.275E+02 0.642E+02 0.707E+02   0.287E+02 -.655E+02 -.760E+02   -.122E+01 0.124E+01 0.533E+01   0.759E-06 -.895E-05 -.127E-04
   0.345E+03 -.138E+02 0.295E+03   -.369E+03 0.419E+02 -.327E+03   0.238E+02 -.281E+02 0.315E+02   0.115E-03 0.871E-05 0.570E-04
   0.253E+03 0.275E+03 0.836E+02   -.285E+03 -.286E+03 -.109E+03   0.317E+02 0.107E+02 0.255E+02   -.409E-04 0.139E-03 -.631E-04
   0.857E+02 -.138E+03 0.228E+03   -.116E+03 0.158E+03 -.246E+03   0.302E+02 -.202E+02 0.186E+02   -.635E-04 -.289E-04 -.813E-05
   0.110E+03 -.455E+03 -.218E+03   -.123E+03 0.482E+03 0.252E+03   0.125E+02 -.267E+02 -.346E+02   -.604E-04 -.636E-04 -.893E-04
   -.274E+03 -.263E+03 -.339E+03   0.316E+03 0.277E+03 0.349E+03   -.425E+02 -.147E+02 -.991E+01   0.228E-04 0.148E-03 -.491E-04
   0.547E+02 0.290E+03 -.427E+01   -.957E+02 -.290E+03 0.205E+02   0.410E+02 -.446E-01 -.162E+02   -.110E-03 0.213E-03 0.219E-04
 -----------------------------------------------------------------------------------------------
   -.619E+02 0.634E+02 -.865E+01   -.199E-12 -.227E-12 -.604E-13   0.619E+02 -.634E+02 0.865E+01   -.544E-03 0.570E-03 -.353E-03
 
 
 POSITION                                       TOTAL-FORCE (eV/Angst)
 -----------------------------------------------------------------------------------
      6.19383      9.18907     10.19668         0.012017      0.004490      0.011166
      7.25590      9.54466     11.02452        -0.005050     -0.003672      0.002570
      7.75688     10.85855     11.00882        -0.006391      0.001741     -0.007013
      7.17459     11.79714     10.15864        -0.002629     -0.001758     -0.005562
      6.11102     11.44232      9.31947        -0.009250     -0.011235     -0.003537
      5.61424     10.14369      9.32995         0.002867      0.004498      0.000039
      6.12106      6.93701     11.00287         0.003236      0.007323     -0.006736
      8.91758     11.20829     11.92322         0.005695     -0.021361      0.002339
     10.22203     10.47334     11.54133         0.006484     -0.002623      0.000963
     11.89132     10.93729      9.80548         0.021453     -0.007669     -0.003430
     12.52417     12.09321      9.34831        -0.009094     -0.011170      0.007298
     12.54998      9.69083      9.68282         0.021872     -0.010014      0.001603
     13.79677     12.04347      8.77500        -0.002306     -0.001336      0.001134
     13.83761      9.64905      9.13088        -0.006187      0.003767     -0.006225
     14.45579     10.81897      8.67548        -0.002196     -0.011072     -0.002316
     11.29405     10.58859     12.62704         0.004109     -0.000391     -0.011111
     12.53773      7.32558     10.01704        -0.005633      0.001771     -0.000338
      7.69932      8.80465     11.69287        -0.002172      0.001058      0.002819
      7.53622     12.82492     10.15829         0.000536      0.002964      0.003156
      5.65053     12.17258      8.65301         0.001341      0.000667     -0.000329
      4.37018      8.85499      8.68056        -0.002135      0.009447     -0.006323
      6.01219      7.24160     12.05738         0.005095     -0.002715      0.015147
      5.52684      6.03635     10.81080         0.000600     -0.008201      0.000413
      7.18479      6.73832     10.78868         0.010664     -0.005333      0.000437
      8.66813     10.90189     12.95298        -0.002779      0.000428     -0.000284
     10.00349      9.40280     11.39522        -0.002849     -0.000235      0.002147
      9.58103     12.85338     11.14346         0.000839     -0.003414      0.005692
     11.99222     13.03912      9.45911         0.002501      0.001705      0.000939
     14.27012     12.96007      8.42243         0.007430      0.001447      0.001673
     14.35911      8.69731      9.03912        -0.001416      0.000813     -0.000289
     15.45427     10.76136      8.24065         0.004630     -0.002419      0.002052
     10.89418     10.04854     13.51186        -0.001710      0.003493      0.002437
     12.20308     10.05997     12.30220        -0.004829      0.003365     -0.000972
     10.86388     12.46277     12.91400         0.008536     -0.002607      0.000728
     13.46748      7.32294     10.61158        -0.001226      0.000852      0.001436
     11.84054      6.57873     10.41498        -0.004414      0.000446     -0.000867
     12.77982      7.08799      8.96707        -0.006793      0.001066      0.001028
      4.56764      9.79863      8.51620         0.001229     -0.009720      0.006182
      5.60815      7.94322     10.13132        -0.013440     -0.001653     -0.024396
     10.60412     11.07196     10.27828        -0.024336      0.025484      0.008903
      9.16171     12.62371     11.99781         0.001883      0.022148     -0.004626
     11.67967     11.91726     12.95313        -0.005623      0.014661      0.005961
     11.86512      8.58115     10.11845        -0.000557      0.004966     -0.003910
 -----------------------------------------------------------------------------------
    total drift:                               -0.000547      0.005547      0.001372


--------------------------------------------------------------------------------------------------------



  FREE ENERGIE OF THE ION-ELECTRON SYSTEM (eV)
  ---------------------------------------------------
  free  energy   TOTEN  =      -266.62026271 eV

  energy  without entropy=     -266.62026271  energy(sigma->0) =     -266.62026271
 


--------------------------------------------------------------------------------------------------------


    POTLOK:  cpu time    1.3158: real time    1.3200


--------------------------------------------------------------------------------------------------------




--------------------------------------------------------------------------------------------------------


    WAVPRE:  cpu time    0.5779: real time    0.5905
    FEWALD:  cpu time    0.0040: real time    0.0032
    ORTHCH:  cpu time    0.7269: real time    0.7280
     LOOP+:  cpu time  211.6558: real time  212.6652


--------------------------------------- Iteration      2(   1)  ---------------------------------------


    POTLOK:  cpu time    1.3238: real time    1.3349
    SETDIJ:  cpu time    0.0070: real time    0.0078
     EDDAV:  cpu time    6.9099: real time    6.9298
       DOS:  cpu time    0.0000: real time    0.0002
    CHARGE:  cpu time    0.6189: real time    0.6213
    MIXING:  cpu time    0.0340: real time    0.0334
    --------------------------------------------
      LOOP:  cpu time    8.8936: real time    8.9275

 eigenvalue-minimisations  :   180
 total energy-change (2. order) :-0.6755625E-04  (-0.5423776E-03)
 number of electron     123.9999996 magnetization 
 augmentation part        5.9013599 magnetization 

  free energy =  -0.265456590430E+03  energy without entropy=  -0.265456590430E+03


--------------------------------------------------------------------------------------------------------




--------------------------------------- Iteration      2(   2)  ---------------------------------------


    POTLOK:  cpu time    1.3188: real time    1.3340
    SETDIJ:  cpu time    0.0130: real time    0.0128
    EDDIAG:  cpu time    1.3198: real time    1.3233
  RMM-DIIS:  cpu time    4.2873: real time    4.2984
    ORTHCH:  cpu time    0.2660: real time    0.2676
       DOS:  cpu time    0.0000: real time    0.0002
    CHARGE:  cpu time    0.6159: real time    0.6177
    MIXING:  cpu time    0.0360: real time    0.0361
    --------------------------------------------
      LOOP:  cpu time    7.8568: real time    7.8901

 eigenvalue-minimisations  :   165
 total energy-change (2. order) :-0.1315868E-04  (-0.1702486E-04)
 number of electron     123.9999996 magnetization 
 augmentation part        5.9012989 magnetization 

 eigenvalues of (default mixing * dielectric matrix)
  average eigenvalue GAMMA=   0.9576
  0.9576

  free energy =  -0.265456603588E+03  energy without entropy=  -0.265456603588E+03


--------------------------------------------------------------------------------------------------------




--------------------------------------- Iteration      2(   3)  ---------------------------------------


    POTLOK:  cpu time    1.3288: real time    1.3318
    SETDIJ:  cpu time    0.0080: real time    0.0081
    EDDIAG:  cpu time    1.3288: real time    1.3323
  RMM-DIIS:  cpu time    2.8866: real time    2.8939
    ORTHCH:  cpu time    0.2650: real time    0.2654
       DOS:  cpu time    0.0010: real time    0.0010
    CHARGE:  cpu time    0.6189: real time    0.6201
    MIXING:  cpu time    0.0380: real time    0.0385
    --------------------------------------------
      LOOP:  cpu time    6.4750: real time    6.4911

 eigenvalue-minimisations  :   106
 total energy-change (2. order) : 0.7397339E-06  (-0.5357152E-06)
 number of electron     123.9999996 magnetization 
 augmentation part        5.9013129 magnetization 

 eigenvalues of (default mixing * dielectric matrix)
  average eigenvalue GAMMA=   1.5278
  1.0964  1.9593

  free energy =  -0.265456602849E+03  energy without entropy=  -0.265456602849E+03


--------------------------------------------------------------------------------------------------------




--------------------------------------- Iteration      2(   4)  ---------------------------------------


    POTLOK:  cpu time    1.3278: real time    1.3314
    SETDIJ:  cpu time    0.0080: real time    0.0078
    EDDIAG:  cpu time    1.3218: real time    1.3252
  RMM-DIIS:  cpu time    2.8386: real time    2.8475
    ORTHCH:  cpu time    0.2660: real time    0.2663
       DOS:  cpu time    0.0000: real time    0.0002
    CHARGE:  cpu time    0.6159: real time    0.6170
    MIXING:  cpu time    0.0400: real time    0.0407
    --------------------------------------------
      LOOP:  cpu time    6.4180: real time    6.4360

 eigenvalue-minimisations  :   106
 total energy-change (2. order) :-0.1125243E-05  (-0.4313455E-06)
 number of electron     123.9999996 magnetization 
 augmentation part        5.9013179 magnetization 

 eigenvalues of (default mixing * dielectric matrix)
  average eigenvalue GAMMA=   1.4901
  2.0464  1.1033  1.3208

  free energy =  -0.265456603974E+03  energy without entropy=  -0.265456603974E+03


--------------------------------------------------------------------------------------------------------




--------------------------------------- Iteration      2(   5)  ---------------------------------------


    POTLOK:  cpu time    1.3328: real time    1.3437
    SETDIJ:  cpu time    0.0080: real time    0.0080
    EDDIAG:  cpu time    1.3228: real time    1.3263
  RMM-DIIS:  cpu time    2.7326: real time    2.7392
    ORTHCH:  cpu time    0.2650: real time    0.2660
       DOS:  cpu time    0.0000: real time    0.0003
    --------------------------------------------
      LOOP:  cpu time    5.6611: real time    5.6835

 eigenvalue-minimisations  :    86
 total energy-change (2. order) :-0.3201003E-06  (-0.6042606E-07)
 number of electron     123.9999996 magnetization 
 augmentation part        5.9013179 magnetization 

  free energy =  -0.265456604294E+03  energy without entropy=  -0.265456604294E+03


--------------------------------------------------------------------------------------------------------




------------------------ aborting loop because EDIFF is reached ----------------------------------------


    CHARGE:  cpu time    0.6149: real time    0.6187
    FORLOC:  cpu time    0.2950: real time    0.2963
    FORNL :  cpu time    1.4078: real time    1.4107
    STRESS:  cpu time    4.1884: real time    4.1982
    FORCOR:  cpu time    1.4378: real time    1.4415
    FORHAR:  cpu time    0.5869: real time    0.5879
    MIXING:  cpu time    0.0410: real time    0.0414
    OFIELD:  cpu time    0.0000: real time    0.0000

  Number of pair interactions contributing to vdW energy:   28962
  Edisp (eV):   -1.16373
    FORVDW:  cpu time    0.0090: real time    0.0089

  FORCE on cell =-STRESS in cart. coord.  units (eV):
  Direction    XX          YY          ZZ          XY          YZ          ZX
  --------------------------------------------------------------------------------------
  Alpha Z     8.32042     8.32042     8.32042
  Ewald    8467.62568  4645.43387   531.18090   764.16552  -144.16264   131.24839
  Hartree  9794.73344  5555.51078  2746.55781   590.91872   111.30083    67.54361
  E(xc)    -496.07933  -493.54175  -499.27999     0.69742    -1.37559     0.32541
  Local  -19606.17460-11447.77310 -4683.65468 -1334.44926    -7.61707  -203.32104
  n-local  -267.41354  -260.53134  -267.07181     1.70941    -0.80378     0.45075
  augment    37.44526    32.67691    38.87257    -1.05659     1.41405     0.47457
  Kinetic  2059.73838  1958.14859  2123.11823   -21.83118    41.22437     3.19147
  Fock        0.00000     0.00000     0.00000     0.00000     0.00000     0.00000
  vdW        -0.39235    -0.09754    -0.20413    -0.07311    -0.03186     0.05646
  -------------------------------------------------------------------------------------
  Total      -2.19665    -1.85316    -2.16068     0.08093    -0.05168    -0.03038
  in kB      -0.43993    -0.37114    -0.43272     0.01621    -0.01035    -0.00608
  external pressure =       -0.41 kB  Pullay stress =        0.00 kB



--------------------------------------------------------------------------------------------------------



  FREE ENERGIE OF THE ION-ELECTRON SYSTEM (eV)
  ---------------------------------------------------
  free  energy   TOTEN  =      -266.62033150 eV

  energy  without entropy=     -266.62033150  energy(sigma->0) =     -266.62033150
 
 d Force = 0.6475837E-04[ 0.246E-04, 0.105E-03]  d Energy = 0.6879076E-04-0.403E-05
 d Force = 0.2170484E+00[ 0.217E+00, 0.217E+00]  d Ewald  = 0.2170483E+00 0.149E-07


--------------------------------------------------------------------------------------------------------


    POTLOK:  cpu time    1.3268: real time    1.3298


--------------------------------------------------------------------------------------------------------


 Steepest descent step on ions:
 trial-energy change:   -0.000069  1 .order   -0.000065   -0.000105   -0.000025
  (g-gl).g = 0.105E-03      g.g   = 0.105E-03  gl.gl    = 0.000E+00
 g(Force)  = 0.105E-03   g(Stress)= 0.000E+00 ortho     = 0.000E+00
 gamma     =   0.00000
 trial     =   1.00000
 opt step  =   1.30640  (harmonic =   1.30640) maximal distance =0.00048183
 next E    =  -266.620331   (d E  =  -0.00007)


--------------------------------------------------------------------------------------------------------


  
 reached required accuracy - stopping structural energy minimisation
     LOOP+:  cpu time   45.2291: real time   45.4289
    4ORBIT:  cpu time    0.0000: real time    0.0000

 total amount of memory used by VASP MPI-rank0   191688. kBytes
=======================================================================

   base      :      30000. kBytes
   nonlr-proj:       3858. kBytes
   fftplans  :      33533. kBytes
   grid      :     104696. kBytes
   one-center:        132. kBytes
   wavefun   :      19469. kBytes
 
  
  
 General timing and accounting informations for this job:
 ========================================================
  
                  Total CPU time used (sec):      262.094
                            User time (sec):      255.285
                          System time (sec):        6.809
                         Elapsed time (sec):      263.896
  
                   Maximum memory used (kb):      562040.
                   Average memory used (kb):           0.
  
                          Minor page faults:       297503
                          Major page faults:            0
                 Voluntary context switches:          657
