 vasp.5.4.4.18Apr17-6-g9f103f2a35 (build May 11 2017 09:47:33) complex          
  
 executed on            tekla2IFC date 2022.05.24  18:48:33
 running on   12 total cores
 distrk:  each k-point on   12 cores,    1 groups
 distr:  one band on NCORES_PER_BAND=   1 cores,   12 groups


--------------------------------------------------------------------------------------------------------


 INCAR:
 POTCAR:    PAW_PBE O 08Apr2002                   
 POTCAR:    PAW_PBE C 08Apr2002                   
 POTCAR:    PAW_PBE N 08Apr2002                   
 POTCAR:    PAW_PBE H 15Jun2001                   

 ----------------------------------------------------------------------------- 
|                                                                             |
|           W    W    AA    RRRRR   N    N  II  N    N   GGGG   !!!           |
|           W    W   A  A   R    R  NN   N  II  NN   N  G    G  !!!           |
|           W    W  A    A  R    R  N N  N  II  N N  N  G       !!!           |
|           W WW W  AAAAAA  RRRRR   N  N N  II  N  N N  G  GGG   !            |
|           WW  WW  A    A  R   R   N   NN  II  N   NN  G    G                |
|           W    W  A    A  R    R  N    N  II  N    N   GGGG   !!!           |
|                                                                             |
|      For optimal performance we recommend to set                            |
|        NCORE= 4 - approx SQRT( number of cores)                             |
|      NCORE specifies how many cores store one orbital (NPAR=cpu/NCORE).     |
|      This setting can  greatly improve the performance of VASP for DFT.     |
|      The default,   NCORE=1            might be grossly inefficient         |
|      on modern multi-core architectures or massively parallel machines.     |
|      Do your own testing !!!!                                               |
|      Unfortunately you need to use the default for GW and RPA calculations. |
|      (for HF NCORE is supported but not extensively tested yet)             |
|                                                                             |
 ----------------------------------------------------------------------------- 

 POTCAR:    PAW_PBE O 08Apr2002                   
  local pseudopotential read in
  partial core-charges read in
  partial kinetic energy density read in
  kinetic energy density of atom read in
  atomic valenz-charges read in
  non local Contribution for L=           0  read in
    real space projection operators read in
  non local Contribution for L=           0  read in
    real space projection operators read in
  non local Contribution for L=           1  read in
    real space projection operators read in
  non local Contribution for L=           1  read in
    real space projection operators read in
    PAW grid and wavefunctions read in
 
   number of l-projection  operators is LMAX  =           4
   number of lm-projection operators is LMMAX =           8
 
 POTCAR:    PAW_PBE C 08Apr2002                   
  local pseudopotential read in
  partial core-charges read in
  partial kinetic energy density read in
  atomic valenz-charges read in
  non local Contribution for L=           0  read in
    real space projection operators read in
  non local Contribution for L=           0  read in
    real space projection operators read in
  non local Contribution for L=           1  read in
    real space projection operators read in
  non local Contribution for L=           1  read in
    real space projection operators read in
    PAW grid and wavefunctions read in
 
   number of l-projection  operators is LMAX  =           4
   number of lm-projection operators is LMMAX =           8
 
 POTCAR:    PAW_PBE N 08Apr2002                   
  local pseudopotential read in
  partial core-charges read in
  partial kinetic energy density read in
  atomic valenz-charges read in
  non local Contribution for L=           0  read in
    real space projection operators read in
  non local Contribution for L=           0  read in
    real space projection operators read in
  non local Contribution for L=           1  read in
    real space projection operators read in
  non local Contribution for L=           1  read in
    real space projection operators read in
    PAW grid and wavefunctions read in
 
   number of l-projection  operators is LMAX  =           4
   number of lm-projection operators is LMMAX =           8
 
 POTCAR:    PAW_PBE H 15Jun2001                   
  local pseudopotential read in
  atomic valenz-charges read in
  non local Contribution for L=           0  read in
    real space projection operators read in
  non local Contribution for L=           0  read in
    real space projection operators read in
  non local Contribution for L=           1  read in
    real space projection operators read in
    PAW grid and wavefunctions read in
 
   number of l-projection  operators is LMAX  =           3
   number of lm-projection operators is LMMAX =           5
 
 Optimization of the real space projectors (new method)

 maximal supplied QI-value         = 24.76
 optimisation between [QCUT,QGAM] = [ 10.64, 21.54] = [ 31.73,129.89] Ry 
 Optimized for a Real-space Cutoff    1.23 Angstroem

   l    n(q)    QCUT    max X(q) W(low)/X(q) W(high)/X(q)  e(spline) 
   0      8    10.645    20.381    0.38E-03    0.60E-03    0.15E-06
   0      8    10.645    15.268    0.40E-03    0.65E-03    0.17E-06
   1      7    10.645     5.964    0.30E-03    0.63E-03    0.18E-06
   1      7    10.645     5.382    0.24E-03    0.53E-03    0.16E-06
 Optimization of the real space projectors (new method)

 maximal supplied QI-value         = 25.13
 optimisation between [QCUT,QGAM] = [ 10.81, 21.61] = [ 32.71,130.83] Ry 
 Optimized for a Real-space Cutoff    1.23 Angstroem

   l    n(q)    QCUT    max X(q) W(low)/X(q) W(high)/X(q)  e(spline) 
   0      8    10.807   115.676    0.36E-03    0.72E-03    0.24E-06
   0      8    10.807    87.132    0.35E-03    0.71E-03    0.24E-06
   1      7    10.807     4.429    0.19E-03    0.39E-03    0.11E-06
   1      7    10.807     2.733    0.14E-03    0.28E-03    0.13E-06
 Optimization of the real space projectors (new method)

 maximal supplied QI-value         = 25.13
 optimisation between [QCUT,QGAM] = [ 10.81, 21.61] = [ 32.71,130.83] Ry 
 Optimized for a Real-space Cutoff    1.23 Angstroem

   l    n(q)    QCUT    max X(q) W(low)/X(q) W(high)/X(q)  e(spline) 
   0      8    10.807    79.467    0.34E-03    0.68E-03    0.21E-06
   0      8    10.807    66.151    0.34E-03    0.67E-03    0.21E-06
   1      7    10.807    14.030    0.45E-03    0.13E-02    0.11E-05
   1      7    10.807     9.831    0.48E-03    0.13E-02    0.11E-05
 Optimization of the real space projectors (new method)

 maximal supplied QI-value         = 34.20
 optimisation between [QCUT,QGAM] = [ 10.60, 21.55] = [ 31.48,130.03] Ry 
 Optimized for a Real-space Cutoff    1.23 Angstroem

   l    n(q)    QCUT    max X(q) W(low)/X(q) W(high)/X(q)  e(spline) 
   0      8    10.603    19.460    0.37E-03    0.59E-03    0.23E-06
   0      8    10.603    12.209    0.35E-03    0.56E-03    0.22E-06
   1      7    10.603     4.655    0.70E-04    0.28E-03    0.29E-06
  PAW_PBE O 08Apr2002                   :
 energy of atom  1       EATOM= -432.3788
 kinetic energy error for atom=    0.0389 (will be added to EATOM!!)
  PAW_PBE C 08Apr2002                   :
 energy of atom  2       EATOM= -147.1560
 kinetic energy error for atom=    0.0116 (will be added to EATOM!!)
  PAW_PBE N 08Apr2002                   :
 energy of atom  3       EATOM= -264.5486
 kinetic energy error for atom=    0.0253 (will be added to EATOM!!)
  PAW_PBE H 15Jun2001                   :
 energy of atom  4       EATOM=  -12.4884
 kinetic energy error for atom=    0.0045 (will be added to EATOM!!)
 
 
 POSCAR: O  C  N  H                              
  positions in direct lattice
  velocities in cartesian coordinates
 exchange correlation table for  LEXCH =        8
   RHO(1)=    0.500       N(1)  =     2000
   RHO(2)=  100.500       N(2)  =     4000
 


--------------------------------------------------------------------------------------------------------


 ion  position               nearest neighbor table
   1  0.642  0.381  0.466-  12 1.23
   2  0.661  0.489  0.458-  12 1.38  13 1.44
   3  0.339  0.214  0.422-  14 1.22
   4  0.426  0.145  0.440-  14 1.38  15 1.44
   5  0.433  0.522  0.440-  24 1.10  23 1.10  25 1.10   6 1.51
   6  0.436  0.450  0.442-   7 1.40  11 1.42   5 1.51
   7  0.378  0.414  0.438-  18 1.09   8 1.39   6 1.40
   8  0.378  0.347  0.439-  19 1.09   7 1.39   9 1.40
   9  0.440  0.316  0.444-   8 1.40  10 1.40  17 1.41
  10  0.499  0.351  0.449-  20 1.09  11 1.40   9 1.40
  11  0.497  0.418  0.447-  10 1.40  16 1.41   6 1.42
  12  0.621  0.436  0.459-   1 1.23  16 1.37   2 1.38
  13  0.731  0.477  0.467-  26 1.09  28 1.10  27 1.10   2 1.44
  14  0.398  0.205  0.435-   3 1.22  17 1.37   4 1.38
  15  0.380  0.094  0.427-  31 1.09  29 1.10  30 1.10   4 1.44
  16  0.556  0.455  0.451-  21 1.01  12 1.37  11 1.41
  17  0.446  0.249  0.446-  22 1.02  14 1.37   9 1.41
  18  0.330  0.438  0.434-   7 1.09
  19  0.332  0.320  0.436-   8 1.09
  20  0.548  0.327  0.453-  10 1.09
  21  0.550  0.503  0.446-  16 1.01
  22  0.493  0.232  0.453-  17 1.02
  23  0.454  0.544  0.482-   5 1.10
  24  0.381  0.538  0.437-   5 1.10
  25  0.460  0.542  0.401-   5 1.10
  26  0.756  0.523  0.462-  13 1.09
  27  0.740  0.457  0.512-  13 1.10
  28  0.749  0.443  0.432-  13 1.10
  29  0.337  0.095  0.457-  15 1.10
  30  0.362  0.096  0.379-  15 1.10
  31  0.409  0.050  0.434-  15 1.09
 
  LATTYP: Found a simple orthorhombic cell.
 ALAT       =    20.0000000000
 B/A-ratio  =     1.0500000000
 C/A-ratio  =     1.1000000000
  
  Lattice vectors:
  
 A1 = (  20.0000000000,   0.0000000000,   0.0000000000)
 A2 = (   0.0000000000,  21.0000000000,   0.0000000000)
 A3 = (   0.0000000000,   0.0000000000,  22.0000000000)


Analysis of symmetry for initial positions (statically):
=====================================================================
 Subroutine PRICEL returns:
 Original cell was already a primitive cell.
 

 Routine SETGRP: Setting up the symmetry group for a 
 simple orthorhombic supercell.


 Subroutine GETGRP returns: Found  1 space group operations
 (whereof  1 operations were pure point group operations)
 out of a pool of  8 trial point group operations.


The static configuration has the point symmetry C_1 .


Analysis of symmetry for dynamics (positions and initial velocities):
=====================================================================
 Subroutine PRICEL returns:
 Original cell was already a primitive cell.
 

 Routine SETGRP: Setting up the symmetry group for a 
 simple orthorhombic supercell.


 Subroutine GETGRP returns: Found  1 space group operations
 (whereof  1 operations were pure point group operations)
 out of a pool of  8 trial point group operations.


The dynamic configuration has the point symmetry C_1 .


Analysis of constrained symmetry for selective dynamics:
=====================================================================
 Subroutine PRICEL returns:
 Original cell was already a primitive cell.
 

 Routine SETGRP: Setting up the symmetry group for a 
 simple orthorhombic supercell.


 Subroutine GETGRP returns: Found  1 space group operations
 (whereof  1 operations were pure point group operations)
 out of a pool of  8 trial point group operations.


The constrained configuration has the point symmetry C_1 .


 Subroutine INISYM returns: Found  1 space group operations
 (whereof  1 operations are pure point group operations),
 and found     1 'primitive' translations

 
 
 KPOINTS: K-POINTS                                

Automatic generation of k-mesh.
Space group operators:
 irot       det(A)        alpha          n_x          n_y          n_z        tau_x        tau_y        tau_z
    1     1.000000     0.000001     1.000000     0.000000     0.000000     0.000000     0.000000     0.000000
 
 Subroutine IBZKPT returns following result:
 ===========================================
 
 Found      1 irreducible k-points:
 
 Following reciprocal coordinates:
            Coordinates               Weight
  0.000000  0.000000  0.000000      1.000000
 
 Following cartesian coordinates:
            Coordinates               Weight
  0.000000  0.000000  0.000000      1.000000
 


--------------------------------------------------------------------------------------------------------




 Dimension of arrays:
   k-points           NKPTS =      1   k-points in BZ     NKDIM =      1   number of bands    NBANDS=     72
   number of dos      NEDOS =    301   number of ions     NIONS =     31
   non local maximal  LDIM  =      4   non local SUM 2l+1 LMDIM =      8
   total plane-waves  NPLWV = ******
   max r-space proj   IRMAX =   1265   max aug-charges    IRDMAX=   2237
   dimension x,y,z NGX =   108 NGY =  112 NGZ =  120
   dimension x,y,z NGXF=   216 NGYF=  224 NGZF=  240
   support grid    NGXF=   216 NGYF=  224 NGZF=  240
   ions per type =               4  11   2  14
   NGX,Y,Z   is equivalent  to a cutoff of   8.98,  8.87,  9.07 a.u.
   NGXF,Y,Z  is equivalent  to a cutoff of  17.95, 17.73, 18.14 a.u.

 SYSTEM =  ag-1211-a                               
 POSCAR =  O  C  N  H                              

 Startparameter for this run:
   NWRITE =      0    write-flag & timer
   PREC   = normal    normal or accurate (medium, high low for compatibility)
   ISTART =      0    job   : 0-new  1-cont  2-samecut
   ICHARG =      2    charge: 1-file 2-atom 10-const
   ISPIN  =      1    spin polarized calculation?
   LNONCOLLINEAR =      F non collinear calculations
   LSORBIT =      F    spin-orbit coupling
   INIWAV =      1    electr: 0-lowe 1-rand  2-diag
   LASPH  =      F    aspherical Exc in radial PAW
   METAGGA=      F    non-selfconsistent MetaGGA calc.

 Electronic Relaxation 1
   ENCUT  =  450.0 eV  33.07 Ry    5.75 a.u.  34.59 36.32 38.05*2*pi/ulx,y,z
   ENINI  =  450.0     initial cutoff
   ENAUG  =  644.9 eV  augmentation charge cutoff
   NELM   =     50;   NELMIN=  5; NELMDL= -7     # of ELM steps 
   EDIFF  = 0.1E-04   stopping-criterion for ELM
   LREAL  =      T    real-space projection
   NLSPLINE    = F    spline interpolate recip. space projectors
   LCOMPAT=      F    compatible to vasp.4.4
   GGA_COMPAT  = T    GGA compatible to vasp.4.4-vasp.4.6
   LMAXPAW     = -100 max onsite density
   LMAXMIX     =    2 max onsite mixed and CHGCAR
   VOSKOWN=      0    Vosko Wilk Nusair interpolation
   ROPT   =   -0.00050  -0.00050  -0.00050  -0.00050
 Ionic relaxation
   EDIFFG = -.2E-01   stopping-criterion for IOM
   NSW    =    300    number of steps for IOM
   NBLOCK =      1;   KBLOCK =    300    inner block; outer block 
   IBRION =      2    ionic relax: 0-MD 1-quasi-New 2-CG
   NFREE  =      2    steps in history (QN), initial steepest desc. (CG)
   ISIF   =      2    stress and relaxation
   IWAVPR =     11    prediction:  0-non 1-charg 2-wave 3-comb
   ISYM   =      2    0-nonsym 1-usesym 2-fastsym
   LCORR  =      T    Harris-Foulkes like correction to forces

   POTIM  = 0.1500    time-step for ionic-motion
   TEIN   =    0.0    initial temperature
   TEBEG  =    0.0;   TEEND  =   0.0 temperature during run
   SMASS  =  -3.00    Nose mass-parameter (am)
   estimated Nose-frequenzy (Omega)   =  0.10E-29 period in steps =****** mass=  -0.914E-26a.u.
   SCALEE = 1.0000    scale energy and forces
   NPACO  =    256;   APACO  = 16.0  distance and # of slots for P.C.
   PSTRESS=    0.0 pullay stress

  Mass of Ions in am
   POMASS =  16.00 12.01 14.00  1.00
  Ionic Valenz
   ZVAL   =   6.00  4.00  5.00  1.00
  Atomic Wigner-Seitz radii
   RWIGS  =  -1.00 -1.00 -1.00 -1.00
  virtual crystal weights 
   VCA    =   1.00  1.00  1.00  1.00
   NELECT =      92.0000    total number of electrons
   NUPDOWN=      -1.0000    fix difference up-down

 DOS related values:
   EMIN   =  10.00;   EMAX   =-10.00  energy-range for DOS
   EFERMI =   0.00
   ISMEAR =     0;   SIGMA  =   0.03  broadening in eV -4-tet -1-fermi 0-gaus

 Electronic relaxation 2 (details)
   IALGO  =     68    algorithm
   LDIAG  =      T    sub-space diagonalisation (order eigenvalues)
   LSUBROT=      F    optimize rotation matrix (better conditioning)
   TURBO    =      0    0=normal 1=particle mesh
   IRESTART =      0    0=no restart 2=restart with 2 vectors
   NREBOOT  =      0    no. of reboots
   NMIN     =      0    reboot dimension
   EREF     =   0.00    reference energy to select bands
   IMIX   =      4    mixing-type and parameters
     AMIX     =   0.40;   BMIX     =  1.00
     AMIX_MAG =   1.60;   BMIX_MAG =  1.00
     AMIN     =   0.10
     WC   =   100.;   INIMIX=   1;  MIXPRE=   1;  MAXMIX= -45

 Intra band minimization:
   WEIMIN = 0.0010     energy-eigenvalue tresh-hold
   EBREAK =  0.35E-07  absolut break condition
   DEPER  =   0.30     relativ break condition  

   TIME   =   0.40     timestep for ELM

  volume/ion in A,a.u.               =     298.06      2011.44
  Fermi-wavevector in a.u.,A,eV,Ry     =   0.352193  0.665547  1.687661  0.124040
  Thomas-Fermi vector in A             =   1.265447
 
 Write flags
   LWAVE        =      F    write WAVECAR
   LDOWNSAMPLE  =      F    k-point downsampling of WAVECAR
   LCHARG       =      F    write CHGCAR
   LVTOT        =      F    write LOCPOT, total local potential
   LVHAR        =      F    write LOCPOT, Hartree potential only
   LELF         =      F    write electronic localiz. function (ELF)
   LORBIT       =      0    0 simple, 1 ext, 2 COOP (PROOUT), +10 PAW based schemes


 Dipole corrections
   LMONO  =      F    monopole corrections only (constant potential shift)
   LDIPOL =      F    correct potential (dipole corrections)
   IDIPOL =      0    1-x, 2-y, 3-z, 4-all directions 
   EPSILON=  1.0000000 bulk dielectric constant

 Exchange correlation treatment:
   GGA     =    PE    GGA type
   LEXCH   =     8    internal setting for exchange type
   VOSKOWN=      0    Vosko Wilk Nusair interpolation
   LHFCALC =     F    Hartree Fock is set to
   LHFONE  =     F    Hartree Fock one center treatment
   AEXX    =    0.0000 exact exchange contribution

 Linear response parameters
   LEPSILON=     F    determine dielectric tensor
   LRPA    =     F    only Hartree local field effects (RPA)
   LNABLA  =     F    use nabla operator in PAW spheres
   LVEL    =     F    velocity operator in full k-point grid
   LINTERFAST=   F  fast interpolation
   KINTER  =     0    interpolate to denser k-point grid
   CSHIFT  =0.1000    complex shift for real part using Kramers Kronig
   OMEGAMAX=  -1.0    maximum frequency
   DEG_THRESHOLD= 0.2000000E-02 threshold for treating states as degnerate
   RTIME   =   -0.100 relaxation time in fs
  (WPLASMAI=    0.000 imaginary part of plasma frequency in eV, 0.658/RTIME)
   DFIELD  = 0.0000000 0.0000000 0.0000000 field for delta impulse in time
 
 Orbital magnetization related:
   ORBITALMAG=     F  switch on orbital magnetization
   LCHIMAG   =     F  perturbation theory with respect to B field
   DQ        =  0.001000  dq finite difference perturbation B field
   LLRAUG    =     F  two centre corrections for induced B field



--------------------------------------------------------------------------------------------------------


 conjugate gradient relaxation of ions
   using selective dynamics as specified on POSCAR
 charge density and potential will be updated during run
 non-spin polarized calculation
 RMM-DIIS sequential band-by-band and
  variant of blocked Davidson during initial phase
 perform sub-space diagonalisation
    before iterative eigenvector-optimisation
 modified Broyden-mixing scheme, WC =      100.0
 initial mixing is a Kerker type mixing with AMIX =  0.4000 and BMIX =      1.0000
 Hartree-type preconditioning will be used
 using additional bands           26
 real space projection scheme for non local part
 use partial core corrections
 calculate Harris-corrections to forces 
   (improved forces if not selfconsistent)
 use gradient corrections 
 use of overlap-Matrix (Vanderbilt PP)
 Gauss-broadening in eV      SIGMA  =   0.03


--------------------------------------------------------------------------------------------------------


  energy-cutoff  :      450.00
  volume of cell :     9240.00
      direct lattice vectors                 reciprocal lattice vectors
    20.000000000  0.000000000  0.000000000     0.050000000  0.000000000  0.000000000
     0.000000000 21.000000000  0.000000000     0.000000000  0.047619048  0.000000000
     0.000000000  0.000000000 22.000000000     0.000000000  0.000000000  0.045454545

  length of vectors
    20.000000000 21.000000000 22.000000000     0.050000000  0.047619048  0.045454545


 
 k-points in units of 2pi/SCALE and weight: K-POINTS                                
   0.00000000  0.00000000  0.00000000       1.000
 
 k-points in reciprocal lattice and weights: K-POINTS                                
   0.00000000  0.00000000  0.00000000       1.000
 
 position of ions in fractional coordinates (direct lattice) 
   0.64154177  0.38136498  0.46606708
   0.66077499  0.48904463  0.45824927
   0.33867731  0.21402519  0.42240411
   0.42583287  0.14510488  0.43961492
   0.43283082  0.52210144  0.44031790
   0.43579099  0.45047647  0.44200483
   0.37778109  0.41364615  0.43829692
   0.37835242  0.34724359  0.43948026
   0.43996640  0.31592552  0.44448005
   0.49935607  0.35127986  0.44864351
   0.49748366  0.41783701  0.44740435
   0.62081144  0.43576553  0.45905181
   0.73103290  0.47655853  0.46667691
   0.39753965  0.20458010  0.43472971
   0.38016397  0.09373865  0.42666845
   0.55587576  0.45500539  0.45070111
   0.44609779  0.24923230  0.44584986
   0.32977695  0.43807421  0.43417746
   0.33231463  0.32005047  0.43604793
   0.54752419  0.32745257  0.45264483
   0.54997966  0.50275774  0.44636906
   0.49264170  0.23156088  0.45319388
   0.45420875  0.54388140  0.48161371
   0.38088138  0.53844805  0.43682034
   0.45992959  0.54207248  0.40097024
   0.75568082  0.52280935  0.46162418
   0.74045336  0.45687001  0.51213471
   0.74940415  0.44283598  0.43238288
   0.33684435  0.09535416  0.45730225
   0.36247624  0.09648536  0.37946252
   0.40904304  0.05010387  0.43388878
 
 position of ions in cartesian coordinates  (Angst):
  12.83083535  8.00866449 10.25347586
  13.21549986 10.26993718 10.08148394
   6.77354615  4.49452889  9.29289040
   8.51665730  3.04720249  9.67152817
   8.65661641 10.96413018  9.68699385
   8.71581970  9.46000579  9.72410637
   7.55562181  8.68656905  9.64253230
   7.56704842  7.29211548  9.66856574
   8.79932802  6.63443583  9.77856110
   9.98712136  7.37687712  9.87015714
   9.94967316  8.77457724  9.84289576
  12.41622877  9.15107609 10.09913974
  14.62065792 10.00772913 10.26689191
   7.95079309  4.29618202  9.56405367
   7.60327948  1.96851165  9.38670582
  11.11751520  9.55511322  9.91542435
   8.92195576  5.23387839  9.80869681
   6.59553904  9.19955842  9.55190408
   6.64629267  6.72105977  9.59305444
  10.95048381  6.87650401  9.95818623
  10.99959324 10.55791247  9.82011927
   9.85283393  4.86277846  9.97026542
   9.08417492 11.42150938 10.59550155
   7.61762763 11.30740901  9.61004744
   9.19859189 11.38352217  8.82134517
  15.11361635 10.97899641 10.15573193
  14.80906723  9.59427028 11.26696356
  14.98808294  9.29955563  9.51242347
   6.73688707  2.00243730 10.06064946
   7.24952470  2.02619257  8.34817541
   8.18086085  1.05218134  9.54555307
 


--------------------------------------------------------------------------------------------------------


 k-point  1 :   0.0000 0.0000 0.0000  plane waves:  200221

 maximum and minimum number of plane-waves per node :    200221   200221

 maximum number of plane-waves:    200221
 maximum index in each direction: 
   IXMAX=   34   IYMAX=   36   IZMAX=   38
   IXMIN=  -34   IYMIN=  -36   IZMIN=  -38


 serial   3D FFT for wavefunctions
 parallel 3D FFT for charge:
    minimum data exchange during FFTs selected (reduces bandwidth)


 total amount of memory used by VASP MPI-rank0   219118. kBytes
=======================================================================

   base      :      30000. kBytes
   nonlr-proj:       2792. kBytes
   fftplans  :      38602. kBytes
   grid      :     128386. kBytes
   one-center:         95. kBytes
   wavefun   :      19243. kBytes
 
     INWAV:  cpu time    0.0000: real time    0.0001
 Broyden mixing: mesh for mixing (old mesh)
   NGX = 69   NGY = 73   NGZ = 77
  (NGX  =216   NGY  =224   NGZ  =240)
  gives a total of 387849 points

 initial charge density was supplied:
 charge density of overlapping atoms calculated
 number of electron      92.0000000 magnetization 
 keeping initial charge density in first step


--------------------------------------------------------------------------------------------------------


 Maximum index for non-local projection operator         1197
 Maximum index for augmentation-charges          189 (set IRDMAX)


--------------------------------------------------------------------------------------------------------


 First call to EWALD:  gamma=   0.084
 Maximum number of real-space cells 3x 3x 3
 Maximum number of reciprocal cells 3x 3x 3

    FEWALD:  cpu time    0.0030: real time    0.0028


--------------------------------------- Iteration      1(   1)  ---------------------------------------


    POTLOK:  cpu time    1.7107: real time    1.7245
    SETDIJ:  cpu time    0.0070: real time    0.0066
     EDDAV:  cpu time    7.7678: real time    7.8614
       DOS:  cpu time    0.0010: real time    0.0009
    --------------------------------------------
      LOOP:  cpu time    9.4866: real time    9.5936

 eigenvalue-minimisations  :   192
 total energy-change (2. order) : 0.7034344E+03  (-0.2138730E+04)
 number of electron      92.0000000 magnetization 
 augmentation part       92.0000000 magnetization 

 Free energy of the ion-electron system (eV)
  ---------------------------------------------------
  alpha Z        PSCENC =         3.94031330
  Ewald energy   TEWEN  =      8960.65783302
  -Hartree energ DENC   =    -11925.32471741
  -exchange      EXHF   =         0.00000000
  -V(xc)+E(xc)   XCENC  =       327.74790470
  PAW double counting   =      3019.68226507    -3035.64666879
  entropy T*S    EENTRO =        -0.00902738
  eigenvalues    EBANDS =      -699.38225455
  atomic energy  EATOM  =      4051.76875477
  Solvation  Ediel_sol  =         0.00000000
  ---------------------------------------------------
  free energy    TOTEN  =       703.43440274 eV

  energy without entropy =      703.44343012  energy(sigma->0) =      703.43891643


--------------------------------------------------------------------------------------------------------




--------------------------------------- Iteration      1(   2)  ---------------------------------------


     EDDAV:  cpu time    9.3266: real time    9.4059
       DOS:  cpu time    0.0010: real time    0.0009
    --------------------------------------------
      LOOP:  cpu time    9.3276: real time    9.4068

 eigenvalue-minimisations  :   240
 total energy-change (2. order) :-0.4951025E+03  (-0.4480056E+03)
 number of electron      92.0000000 magnetization 
 augmentation part       92.0000000 magnetization 

 Free energy of the ion-electron system (eV)
  ---------------------------------------------------
  alpha Z        PSCENC =         3.94031330
  Ewald energy   TEWEN  =      8960.65783302
  -Hartree energ DENC   =    -11925.32471741
  -exchange      EXHF   =         0.00000000
  -V(xc)+E(xc)   XCENC  =       327.74790470
  PAW double counting   =      3019.68226507    -3035.64666879
  entropy T*S    EENTRO =        -0.00067495
  eigenvalues    EBANDS =     -1194.49313907
  atomic energy  EATOM  =      4051.76875477
  Solvation  Ediel_sol  =         0.00000000
  ---------------------------------------------------
  free energy    TOTEN  =       208.33187065 eV

  energy without entropy =      208.33254560  energy(sigma->0) =      208.33220813


--------------------------------------------------------------------------------------------------------




--------------------------------------- Iteration      1(   3)  ---------------------------------------


     EDDAV:  cpu time    8.6177: real time    8.6399
       DOS:  cpu time    0.0010: real time    0.0008
    --------------------------------------------
      LOOP:  cpu time    8.6187: real time    8.6407

 eigenvalue-minimisations  :   216
 total energy-change (2. order) :-0.3571814E+03  (-0.3483313E+03)
 number of electron      92.0000000 magnetization 
 augmentation part       92.0000000 magnetization 

 Free energy of the ion-electron system (eV)
  ---------------------------------------------------
  alpha Z        PSCENC =         3.94031330
  Ewald energy   TEWEN  =      8960.65783302
  -Hartree energ DENC   =    -11925.32471741
  -exchange      EXHF   =         0.00000000
  -V(xc)+E(xc)   XCENC  =       327.74790470
  PAW double counting   =      3019.68226507    -3035.64666879
  entropy T*S    EENTRO =        -0.00000000
  eigenvalues    EBANDS =     -1551.67525659
  atomic energy  EATOM  =      4051.76875477
  Solvation  Ediel_sol  =         0.00000000
  ---------------------------------------------------
  free energy    TOTEN  =      -148.84957192 eV

  energy without entropy =     -148.84957192  energy(sigma->0) =     -148.84957192


--------------------------------------------------------------------------------------------------------




--------------------------------------- Iteration      1(   4)  ---------------------------------------


     EDDAV:  cpu time    7.8278: real time    7.8498
       DOS:  cpu time    0.0000: real time    0.0008
    --------------------------------------------
      LOOP:  cpu time    7.8278: real time    7.8506

 eigenvalue-minimisations  :   192
 total energy-change (2. order) :-0.6261058E+02  (-0.6236076E+02)
 number of electron      92.0000000 magnetization 
 augmentation part       92.0000000 magnetization 

 Free energy of the ion-electron system (eV)
  ---------------------------------------------------
  alpha Z        PSCENC =         3.94031330
  Ewald energy   TEWEN  =      8960.65783302
  -Hartree energ DENC   =    -11925.32471741
  -exchange      EXHF   =         0.00000000
  -V(xc)+E(xc)   XCENC  =       327.74790470
  PAW double counting   =      3019.68226507    -3035.64666879
  entropy T*S    EENTRO =        -0.00000000
  eigenvalues    EBANDS =     -1614.28584053
  atomic energy  EATOM  =      4051.76875477
  Solvation  Ediel_sol  =         0.00000000
  ---------------------------------------------------
  free energy    TOTEN  =      -211.46015586 eV

  energy without entropy =     -211.46015586  energy(sigma->0) =     -211.46015586


--------------------------------------------------------------------------------------------------------




--------------------------------------- Iteration      1(   5)  ---------------------------------------


     EDDAV:  cpu time    8.1948: real time    8.2136
       DOS:  cpu time    0.0010: real time    0.0008
    --------------------------------------------
      LOOP:  cpu time    8.1958: real time    8.2144

 eigenvalue-minimisations  :   204
 total energy-change (2. order) :-0.1372031E+01  (-0.1365232E+01)
 number of electron      92.0000000 magnetization 
 augmentation part       92.0000000 magnetization 

 Free energy of the ion-electron system (eV)
  ---------------------------------------------------
  alpha Z        PSCENC =         3.94031330
  Ewald energy   TEWEN  =      8960.65783302
  -Hartree energ DENC   =    -11925.32471741
  -exchange      EXHF   =         0.00000000
  -V(xc)+E(xc)   XCENC  =       327.74790470
  PAW double counting   =      3019.68226507    -3035.64666879
  entropy T*S    EENTRO =        -0.00000000
  eigenvalues    EBANDS =     -1615.65787160
  atomic energy  EATOM  =      4051.76875477
  Solvation  Ediel_sol  =         0.00000000
  ---------------------------------------------------
  free energy    TOTEN  =      -212.83218693 eV

  energy without entropy =     -212.83218693  energy(sigma->0) =     -212.83218693


--------------------------------------------------------------------------------------------------------




--------------------------------------- Iteration      1(   6)  ---------------------------------------


     EDDAV:  cpu time    8.2148: real time    8.2364
       DOS:  cpu time    0.0010: real time    0.0008
    --------------------------------------------
      LOOP:  cpu time    8.2158: real time    8.2372

 eigenvalue-minimisations  :   204
 total energy-change (2. order) :-0.2165107E-01  (-0.2150118E-01)
 number of electron      92.0000000 magnetization 
 augmentation part       92.0000000 magnetization 

 Free energy of the ion-electron system (eV)
  ---------------------------------------------------
  alpha Z        PSCENC =         3.94031330
  Ewald energy   TEWEN  =      8960.65783302
  -Hartree energ DENC   =    -11925.32471741
  -exchange      EXHF   =         0.00000000
  -V(xc)+E(xc)   XCENC  =       327.74790470
  PAW double counting   =      3019.68226507    -3035.64666879
  entropy T*S    EENTRO =        -0.00000000
  eigenvalues    EBANDS =     -1615.67952266
  atomic energy  EATOM  =      4051.76875477
  Solvation  Ediel_sol  =         0.00000000
  ---------------------------------------------------
  free energy    TOTEN  =      -212.85383799 eV

  energy without entropy =     -212.85383799  energy(sigma->0) =     -212.85383799


--------------------------------------------------------------------------------------------------------




--------------------------------------- Iteration      1(   7)  ---------------------------------------


     EDDAV:  cpu time    8.2128: real time    8.2338
       DOS:  cpu time    0.0010: real time    0.0008
    CHARGE:  cpu time    0.5719: real time    0.5734
    MIXING:  cpu time    0.0400: real time    0.0397
    --------------------------------------------
      LOOP:  cpu time    8.8257: real time    8.8478

 eigenvalue-minimisations  :   204
 total energy-change (2. order) :-0.6186174E-03  (-0.6179484E-03)
 number of electron      91.9999976 magnetization 
 augmentation part        4.9795772 magnetization 

 Broyden mixing:
  rms(total) = 0.23962E+01    rms(broyden)= 0.23941E+01
  rms(prec ) = 0.25589E+01
  weight for this iteration     100.00

 Free energy of the ion-electron system (eV)
  ---------------------------------------------------
  alpha Z        PSCENC =         3.94031330
  Ewald energy   TEWEN  =      8960.65783302
  -Hartree energ DENC   =    -11925.32471741
  -exchange      EXHF   =         0.00000000
  -V(xc)+E(xc)   XCENC  =       327.74790470
  PAW double counting   =      3019.68226507    -3035.64666879
  entropy T*S    EENTRO =        -0.00000000
  eigenvalues    EBANDS =     -1615.68014128
  atomic energy  EATOM  =      4051.76875477
  Solvation  Ediel_sol  =         0.00000000
  ---------------------------------------------------
  free energy    TOTEN  =      -212.85445661 eV

  energy without entropy =     -212.85445661  energy(sigma->0) =     -212.85445661


--------------------------------------------------------------------------------------------------------




--------------------------------------- Iteration      1(   8)  ---------------------------------------


    POTLOK:  cpu time    1.5938: real time    1.5989
    SETDIJ:  cpu time    0.0060: real time    0.0066
    EDDIAG:  cpu time    1.2668: real time    1.2696
  RMM-DIIS:  cpu time    4.3603: real time    4.3722
    ORTHCH:  cpu time    0.2420: real time    0.2425
       DOS:  cpu time    0.0000: real time    0.0005
    CHARGE:  cpu time    0.5609: real time    0.5622
    MIXING:  cpu time    0.0460: real time    0.0462
    --------------------------------------------
      LOOP:  cpu time    8.0758: real time    8.0986

 eigenvalue-minimisations  :   144
 total energy-change (2. order) : 0.1421661E+02  (-0.2898549E+01)
 number of electron      91.9999976 magnetization 
 augmentation part        4.5577202 magnetization 

 Broyden mixing:
  rms(total) = 0.12399E+01    rms(broyden)= 0.12396E+01
  rms(prec ) = 0.13039E+01
  weight for this iteration     100.00

 eigenvalues of (default mixing * dielectric matrix)
  average eigenvalue GAMMA=   1.3330
  1.3330

 Free energy of the ion-electron system (eV)
  ---------------------------------------------------
  alpha Z        PSCENC =         3.94031330
  Ewald energy   TEWEN  =      8960.65783302
  -Hartree energ DENC   =    -12092.56235858
  -exchange      EXHF   =         0.00000000
  -V(xc)+E(xc)   XCENC  =       336.41096487
  PAW double counting   =      4626.49312747    -4644.63783662
  entropy T*S    EENTRO =        -0.00000000
  eigenvalues    EBANDS =     -1440.70864518
  atomic energy  EATOM  =      4051.76875477
  Solvation  Ediel_sol  =         0.00000000
  ---------------------------------------------------
  free energy    TOTEN  =      -198.63784695 eV

  energy without entropy =     -198.63784695  energy(sigma->0) =     -198.63784695


--------------------------------------------------------------------------------------------------------




--------------------------------------- Iteration      1(   9)  ---------------------------------------


    POTLOK:  cpu time    1.5958: real time    1.5992
    SETDIJ:  cpu time    0.0070: real time    0.0073
    EDDIAG:  cpu time    1.2598: real time    1.2626
  RMM-DIIS:  cpu time    4.2993: real time    4.3112
    ORTHCH:  cpu time    0.2420: real time    0.2428
       DOS:  cpu time    0.0010: real time    0.0008
    CHARGE:  cpu time    0.5629: real time    0.5640
    MIXING:  cpu time    0.0450: real time    0.0452
    --------------------------------------------
      LOOP:  cpu time    8.0128: real time    8.0331

 eigenvalue-minimisations  :   144
 total energy-change (2. order) : 0.2816010E+01  (-0.6812584E+00)
 number of electron      91.9999977 magnetization 
 augmentation part        4.4567407 magnetization 

 Broyden mixing:
  rms(total) = 0.60269E+00    rms(broyden)= 0.60258E+00
  rms(prec ) = 0.62751E+00
  weight for this iteration     100.00

 eigenvalues of (default mixing * dielectric matrix)
  average eigenvalue GAMMA=   1.5657
  1.0897  2.0417

 Free energy of the ion-electron system (eV)
  ---------------------------------------------------
  alpha Z        PSCENC =         3.94031330
  Ewald energy   TEWEN  =      8960.65783302
  -Hartree energ DENC   =    -12195.20251088
  -exchange      EXHF   =         0.00000000
  -V(xc)+E(xc)   XCENC  =       341.34074897
  PAW double counting   =      6284.43445378    -6303.30148410
  entropy T*S    EENTRO =        -0.00000000
  eigenvalues    EBANDS =     -1339.45994600
  atomic energy  EATOM  =      4051.76875477
  Solvation  Ediel_sol  =         0.00000000
  ---------------------------------------------------
  free energy    TOTEN  =      -195.82183713 eV

  energy without entropy =     -195.82183713  energy(sigma->0) =     -195.82183713


--------------------------------------------------------------------------------------------------------




--------------------------------------- Iteration      1(  10)  ---------------------------------------


    POTLOK:  cpu time    1.6058: real time    1.6095
    SETDIJ:  cpu time    0.0060: real time    0.0065
    EDDIAG:  cpu time    1.2628: real time    1.2651
  RMM-DIIS:  cpu time    4.3273: real time    4.3396
    ORTHCH:  cpu time    0.2420: real time    0.2433
       DOS:  cpu time    0.0010: real time    0.0006
    CHARGE:  cpu time    0.5609: real time    0.5621
    MIXING:  cpu time    0.0490: real time    0.0494
    --------------------------------------------
      LOOP:  cpu time    8.0548: real time    8.0760

 eigenvalue-minimisations  :   144
 total energy-change (2. order) : 0.5556668E+00  (-0.1491262E+00)
 number of electron      91.9999977 magnetization 
 augmentation part        4.4163702 magnetization 

 Broyden mixing:
  rms(total) = 0.19214E+00    rms(broyden)= 0.19208E+00
  rms(prec ) = 0.20665E+00
  weight for this iteration     100.00

 eigenvalues of (default mixing * dielectric matrix)
  average eigenvalue GAMMA=   1.5529
  2.3079  0.9236  1.4271

 Free energy of the ion-electron system (eV)
  ---------------------------------------------------
  alpha Z        PSCENC =         3.94031330
  Ewald energy   TEWEN  =      8960.65783302
  -Hartree energ DENC   =    -12254.15954555
  -exchange      EXHF   =         0.00000000
  -V(xc)+E(xc)   XCENC  =       344.17248507
  PAW double counting   =      7581.07520915    -7600.08126876
  entropy T*S    EENTRO =        -0.00000000
  eigenvalues    EBANDS =     -1282.63995131
  atomic energy  EATOM  =      4051.76875477
  Solvation  Ediel_sol  =         0.00000000
  ---------------------------------------------------
  free energy    TOTEN  =      -195.26617031 eV

  energy without entropy =     -195.26617031  energy(sigma->0) =     -195.26617031


--------------------------------------------------------------------------------------------------------




--------------------------------------- Iteration      1(  11)  ---------------------------------------


    POTLOK:  cpu time    1.6108: real time    1.6142
    SETDIJ:  cpu time    0.0060: real time    0.0067
    EDDIAG:  cpu time    1.2618: real time    1.2643
  RMM-DIIS:  cpu time    4.4723: real time    4.4823
    ORTHCH:  cpu time    0.2420: real time    0.2429
       DOS:  cpu time    0.0000: real time    0.0002
    CHARGE:  cpu time    0.5619: real time    0.5631
    MIXING:  cpu time    0.0610: real time    0.0609
    --------------------------------------------
      LOOP:  cpu time    8.2158: real time    8.2345

 eigenvalue-minimisations  :   146
 total energy-change (2. order) : 0.8340329E-01  (-0.1486320E-01)
 number of electron      91.9999978 magnetization 
 augmentation part        4.4105299 magnetization 

 Broyden mixing:
  rms(total) = 0.62041E-01    rms(broyden)= 0.62021E-01
  rms(prec ) = 0.78669E-01
  weight for this iteration     100.00

 eigenvalues of (default mixing * dielectric matrix)
  average eigenvalue GAMMA=   1.5712
  2.1014  2.1014  0.9363  1.1456

 Free energy of the ion-electron system (eV)
  ---------------------------------------------------
  alpha Z        PSCENC =         3.94031330
  Ewald energy   TEWEN  =      8960.65783302
  -Hartree energ DENC   =    -12271.12962243
  -exchange      EXHF   =         0.00000000
  -V(xc)+E(xc)   XCENC  =       344.72132480
  PAW double counting   =      7932.57606449    -7951.45755293
  entropy T*S    EENTRO =        -0.00000000
  eigenvalues    EBANDS =     -1266.25988205
  atomic energy  EATOM  =      4051.76875477
  Solvation  Ediel_sol  =         0.00000000
  ---------------------------------------------------
  free energy    TOTEN  =      -195.18276702 eV

  energy without entropy =     -195.18276702  energy(sigma->0) =     -195.18276702


--------------------------------------------------------------------------------------------------------




--------------------------------------- Iteration      1(  12)  ---------------------------------------


    POTLOK:  cpu time    1.5998: real time    1.6187
    SETDIJ:  cpu time    0.0060: real time    0.0068
    EDDIAG:  cpu time    1.2608: real time    1.2631
  RMM-DIIS:  cpu time    4.2873: real time    4.2973
    ORTHCH:  cpu time    0.2420: real time    0.2433
       DOS:  cpu time    0.0010: real time    0.0002
    CHARGE:  cpu time    0.5599: real time    0.5616
    MIXING:  cpu time    0.0570: real time    0.0574
    --------------------------------------------
      LOOP:  cpu time    8.0138: real time    8.0483

 eigenvalue-minimisations  :   144
 total energy-change (2. order) : 0.1828662E-01  (-0.2743782E-02)
 number of electron      91.9999978 magnetization 
 augmentation part        4.4094572 magnetization 

 Broyden mixing:
  rms(total) = 0.25734E-01    rms(broyden)= 0.25725E-01
  rms(prec ) = 0.43556E-01
  weight for this iteration     100.00

 eigenvalues of (default mixing * dielectric matrix)
  average eigenvalue GAMMA=   1.6329
  2.2589  2.2589  0.9334  1.1742  1.5391

 Free energy of the ion-electron system (eV)
  ---------------------------------------------------
  alpha Z        PSCENC =         3.94031330
  Ewald energy   TEWEN  =      8960.65783302
  -Hartree energ DENC   =    -12280.48024945
  -exchange      EXHF   =         0.00000000
  -V(xc)+E(xc)   XCENC  =       344.78892543
  PAW double counting   =      7946.85116001    -7965.65373721
  entropy T*S    EENTRO =        -0.00000000
  eigenvalues    EBANDS =     -1257.03748027
  atomic energy  EATOM  =      4051.76875477
  Solvation  Ediel_sol  =         0.00000000
  ---------------------------------------------------
  free energy    TOTEN  =      -195.16448040 eV

  energy without entropy =     -195.16448040  energy(sigma->0) =     -195.16448040


--------------------------------------------------------------------------------------------------------




--------------------------------------- Iteration      1(  13)  ---------------------------------------


    POTLOK:  cpu time    1.6208: real time    1.6242
    SETDIJ:  cpu time    0.0080: real time    0.0079
    EDDIAG:  cpu time    1.2598: real time    1.2648
  RMM-DIIS:  cpu time    4.4503: real time    4.4635
    ORTHCH:  cpu time    0.2430: real time    0.2430
       DOS:  cpu time    0.0000: real time    0.0006
    CHARGE:  cpu time    0.5589: real time    0.5604
    MIXING:  cpu time    0.0630: real time    0.0628
    --------------------------------------------
      LOOP:  cpu time    8.2038: real time    8.2272

 eigenvalue-minimisations  :   146
 total energy-change (2. order) : 0.5647053E-02  (-0.1210303E-02)
 number of electron      91.9999978 magnetization 
 augmentation part        4.4074976 magnetization 

 Broyden mixing:
  rms(total) = 0.14070E-01    rms(broyden)= 0.14067E-01
  rms(prec ) = 0.27354E-01
  weight for this iteration     100.00

 eigenvalues of (default mixing * dielectric matrix)
  average eigenvalue GAMMA=   1.7095
  2.6785  2.6785  1.4204  1.4204  0.9658  1.0934

 Free energy of the ion-electron system (eV)
  ---------------------------------------------------
  alpha Z        PSCENC =         3.94031330
  Ewald energy   TEWEN  =      8960.65783302
  -Hartree energ DENC   =    -12293.04221146
  -exchange      EXHF   =         0.00000000
  -V(xc)+E(xc)   XCENC  =       344.96000989
  PAW double counting   =      7942.67871275    -7961.47064450
  entropy T*S    EENTRO =        -0.00000000
  eigenvalues    EBANDS =     -1244.65160112
  atomic energy  EATOM  =      4051.76875477
  Solvation  Ediel_sol  =         0.00000000
  ---------------------------------------------------
  free energy    TOTEN  =      -195.15883334 eV

  energy without entropy =     -195.15883334  energy(sigma->0) =     -195.15883334


--------------------------------------------------------------------------------------------------------




--------------------------------------- Iteration      1(  14)  ---------------------------------------


    POTLOK:  cpu time    1.6248: real time    1.6286
    SETDIJ:  cpu time    0.0060: real time    0.0064
    EDDIAG:  cpu time    1.2658: real time    1.2683
  RMM-DIIS:  cpu time    4.3083: real time    4.3213
    ORTHCH:  cpu time    0.2420: real time    0.2430
       DOS:  cpu time    0.0010: real time    0.0002
    CHARGE:  cpu time    0.5599: real time    0.5616
    MIXING:  cpu time    0.0690: real time    0.0692
    --------------------------------------------
      LOOP:  cpu time    8.0768: real time    8.0986

 eigenvalue-minimisations  :   144
 total energy-change (2. order) :-0.1679773E-02  (-0.9401208E-03)
 number of electron      91.9999978 magnetization 
 augmentation part        4.4064616 magnetization 

 Broyden mixing:
  rms(total) = 0.90272E-02    rms(broyden)= 0.90221E-02
  rms(prec ) = 0.15837E-01
  weight for this iteration     100.00

 eigenvalues of (default mixing * dielectric matrix)
  average eigenvalue GAMMA=   1.8255
  3.7581  2.3463  1.7792  1.7792  0.9927  0.9927  1.1303

 Free energy of the ion-electron system (eV)
  ---------------------------------------------------
  alpha Z        PSCENC =         3.94031330
  Ewald energy   TEWEN  =      8960.65783302
  -Hartree energ DENC   =    -12305.02406535
  -exchange      EXHF   =         0.00000000
  -V(xc)+E(xc)   XCENC  =       345.08294850
  PAW double counting   =      7923.84126053    -7942.62072662
  entropy T*S    EENTRO =        -0.00000000
  eigenvalues    EBANDS =     -1232.80683127
  atomic energy  EATOM  =      4051.76875477
  Solvation  Ediel_sol  =         0.00000000
  ---------------------------------------------------
  free energy    TOTEN  =      -195.16051312 eV

  energy without entropy =     -195.16051312  energy(sigma->0) =     -195.16051312


--------------------------------------------------------------------------------------------------------




--------------------------------------- Iteration      1(  15)  ---------------------------------------


    POTLOK:  cpu time    1.6258: real time    1.6298
    SETDIJ:  cpu time    0.0070: real time    0.0065
    EDDIAG:  cpu time    1.2608: real time    1.2640
  RMM-DIIS:  cpu time    4.4343: real time    4.4471
    ORTHCH:  cpu time    0.2430: real time    0.2433
       DOS:  cpu time    0.0010: real time    0.0008
    CHARGE:  cpu time    0.5559: real time    0.5571
    MIXING:  cpu time    0.0750: real time    0.0746
    --------------------------------------------
      LOOP:  cpu time    8.2028: real time    8.2233

 eigenvalue-minimisations  :   146
 total energy-change (2. order) :-0.7207195E-02  (-0.5088341E-03)
 number of electron      91.9999978 magnetization 
 augmentation part        4.4041986 magnetization 

 Broyden mixing:
  rms(total) = 0.51514E-02    rms(broyden)= 0.51445E-02
  rms(prec ) = 0.88156E-02
  weight for this iteration     100.00

 eigenvalues of (default mixing * dielectric matrix)
  average eigenvalue GAMMA=   1.9364
  4.8847  2.4697  1.8542  1.7528  0.9434  0.9434  1.4243  1.2185

 Free energy of the ion-electron system (eV)
  ---------------------------------------------------
  alpha Z        PSCENC =         3.94031330
  Ewald energy   TEWEN  =      8960.65783302
  -Hartree energ DENC   =    -12312.46456384
  -exchange      EXHF   =         0.00000000
  -V(xc)+E(xc)   XCENC  =       345.16541149
  PAW double counting   =      7920.92762505    -7939.71077278
  entropy T*S    EENTRO =        -0.00000000
  eigenvalues    EBANDS =     -1225.45232132
  atomic energy  EATOM  =      4051.76875477
  Solvation  Ediel_sol  =         0.00000000
  ---------------------------------------------------
  free energy    TOTEN  =      -195.16772031 eV

  energy without entropy =     -195.16772031  energy(sigma->0) =     -195.16772031


--------------------------------------------------------------------------------------------------------




--------------------------------------- Iteration      1(  16)  ---------------------------------------


    POTLOK:  cpu time    1.6218: real time    1.6267
    SETDIJ:  cpu time    0.0060: real time    0.0065
    EDDIAG:  cpu time    1.2698: real time    1.2723
  RMM-DIIS:  cpu time    4.2693: real time    4.2798
    ORTHCH:  cpu time    0.2430: real time    0.2435
       DOS:  cpu time    0.0000: real time    0.0002
    CHARGE:  cpu time    0.5599: real time    0.5606
    MIXING:  cpu time    0.0760: real time    0.0764
    --------------------------------------------
      LOOP:  cpu time    8.0458: real time    8.0660

 eigenvalue-minimisations  :   144
 total energy-change (2. order) :-0.9723631E-02  (-0.1462735E-03)
 number of electron      91.9999978 magnetization 
 augmentation part        4.4045525 magnetization 

 Broyden mixing:
  rms(total) = 0.29977E-02    rms(broyden)= 0.29959E-02
  rms(prec ) = 0.51566E-02
  weight for this iteration     100.00

 eigenvalues of (default mixing * dielectric matrix)
  average eigenvalue GAMMA=   2.0306
  5.8763  2.6799  2.2271  1.9423  1.4139  0.9384  0.9384  1.1295  1.1295

 Free energy of the ion-electron system (eV)
  ---------------------------------------------------
  alpha Z        PSCENC =         3.94031330
  Ewald energy   TEWEN  =      8960.65783302
  -Hartree energ DENC   =    -12315.33090355
  -exchange      EXHF   =         0.00000000
  -V(xc)+E(xc)   XCENC  =       345.15930146
  PAW double counting   =      7913.38004506    -7932.16043968
  entropy T*S    EENTRO =        -0.00000000
  eigenvalues    EBANDS =     -1222.59234834
  atomic energy  EATOM  =      4051.76875477
  Solvation  Ediel_sol  =         0.00000000
  ---------------------------------------------------
  free energy    TOTEN  =      -195.17744394 eV

  energy without entropy =     -195.17744394  energy(sigma->0) =     -195.17744394


--------------------------------------------------------------------------------------------------------




--------------------------------------- Iteration      1(  17)  ---------------------------------------


    POTLOK:  cpu time    1.6188: real time    1.6240
    SETDIJ:  cpu time    0.0060: real time    0.0064
    EDDIAG:  cpu time    1.2618: real time    1.2642
  RMM-DIIS:  cpu time    4.2494: real time    4.2598
    ORTHCH:  cpu time    0.2430: real time    0.2433
       DOS:  cpu time    0.0000: real time    0.0003
    CHARGE:  cpu time    0.5609: real time    0.5615
    MIXING:  cpu time    0.0820: real time    0.0829
    --------------------------------------------
      LOOP:  cpu time    8.0218: real time    8.0423

 eigenvalue-minimisations  :   139
 total energy-change (2. order) :-0.7612019E-02  (-0.8535516E-04)
 number of electron      91.9999978 magnetization 
 augmentation part        4.4042556 magnetization 

 Broyden mixing:
  rms(total) = 0.18676E-02    rms(broyden)= 0.18669E-02
  rms(prec ) = 0.31402E-02
  weight for this iteration     100.00

 eigenvalues of (default mixing * dielectric matrix)
  average eigenvalue GAMMA=   2.0808
  6.3793  3.0315  2.2868  1.7431  1.7431  1.5878  0.9394  0.9394  1.0789  1.0789

 Free energy of the ion-electron system (eV)
  ---------------------------------------------------
  alpha Z        PSCENC =         3.94031330
  Ewald energy   TEWEN  =      8960.65783302
  -Hartree energ DENC   =    -12316.49839467
  -exchange      EXHF   =         0.00000000
  -V(xc)+E(xc)   XCENC  =       345.15213692
  PAW double counting   =      7915.65925492    -7934.43910022
  entropy T*S    EENTRO =        -0.00000000
  eigenvalues    EBANDS =     -1221.42585401
  atomic energy  EATOM  =      4051.76875477
  Solvation  Ediel_sol  =         0.00000000
  ---------------------------------------------------
  free energy    TOTEN  =      -195.18505596 eV

  energy without entropy =     -195.18505596  energy(sigma->0) =     -195.18505596


--------------------------------------------------------------------------------------------------------




--------------------------------------- Iteration      1(  18)  ---------------------------------------


    POTLOK:  cpu time    1.6268: real time    1.6301
    SETDIJ:  cpu time    0.0060: real time    0.0064
    EDDIAG:  cpu time    1.2608: real time    1.2663
  RMM-DIIS:  cpu time    4.2184: real time    4.2272
    ORTHCH:  cpu time    0.2420: real time    0.2434
       DOS:  cpu time    0.0010: real time    0.0003
    CHARGE:  cpu time    0.5609: real time    0.5627
    MIXING:  cpu time    0.0880: real time    0.0885
    --------------------------------------------
      LOOP:  cpu time    8.0038: real time    8.0248

 eigenvalue-minimisations  :   136
 total energy-change (2. order) :-0.5142494E-02  (-0.6085171E-04)
 number of electron      91.9999978 magnetization 
 augmentation part        4.4040471 magnetization 

 Broyden mixing:
  rms(total) = 0.10958E-02    rms(broyden)= 0.10955E-02
  rms(prec ) = 0.17735E-02
  weight for this iteration     100.00

 eigenvalues of (default mixing * dielectric matrix)
  average eigenvalue GAMMA=   2.2290
  7.3235  4.0293  2.3918  2.3918  1.8128  1.2532  1.2532  1.2065  0.9454  0.9454
  0.9664

 Free energy of the ion-electron system (eV)
  ---------------------------------------------------
  alpha Z        PSCENC =         3.94031330
  Ewald energy   TEWEN  =      8960.65783302
  -Hartree energ DENC   =    -12316.93288697
  -exchange      EXHF   =         0.00000000
  -V(xc)+E(xc)   XCENC  =       345.14267361
  PAW double counting   =      7916.61814162    -7935.39847051
  entropy T*S    EENTRO =        -0.00000000
  eigenvalues    EBANDS =     -1220.98655729
  atomic energy  EATOM  =      4051.76875477
  Solvation  Ediel_sol  =         0.00000000
  ---------------------------------------------------
  free energy    TOTEN  =      -195.19019845 eV

  energy without entropy =     -195.19019845  energy(sigma->0) =     -195.19019845


--------------------------------------------------------------------------------------------------------




--------------------------------------- Iteration      1(  19)  ---------------------------------------


    POTLOK:  cpu time    1.6198: real time    1.6233
    SETDIJ:  cpu time    0.0070: real time    0.0064
    EDDIAG:  cpu time    1.2628: real time    1.2665
  RMM-DIIS:  cpu time    4.1944: real time    4.2057
    ORTHCH:  cpu time    0.2470: real time    0.2475
       DOS:  cpu time    0.0010: real time    0.0005
    CHARGE:  cpu time    0.5619: real time    0.5636
    MIXING:  cpu time    0.0940: real time    0.0943
    --------------------------------------------
      LOOP:  cpu time    7.9878: real time    8.0078

 eigenvalue-minimisations  :   135
 total energy-change (2. order) :-0.2544448E-02  (-0.3730709E-04)
 number of electron      91.9999978 magnetization 
 augmentation part        4.4041337 magnetization 

 Broyden mixing:
  rms(total) = 0.56756E-03    rms(broyden)= 0.56739E-03
  rms(prec ) = 0.92185E-03
  weight for this iteration     100.00

 eigenvalues of (default mixing * dielectric matrix)
  average eigenvalue GAMMA=   2.2625
  7.5710  4.6453  2.5400  2.1503  1.9476  1.7984  1.2579  1.1821  1.1821  0.9643
  0.9554  0.9554

 Free energy of the ion-electron system (eV)
  ---------------------------------------------------
  alpha Z        PSCENC =         3.94031330
  Ewald energy   TEWEN  =      8960.65783302
  -Hartree energ DENC   =    -12317.09438903
  -exchange      EXHF   =         0.00000000
  -V(xc)+E(xc)   XCENC  =       345.13402274
  PAW double counting   =      7916.77459383    -7935.55402316
  entropy T*S    EENTRO =        -0.00000000
  eigenvalues    EBANDS =     -1220.81984838
  atomic energy  EATOM  =      4051.76875477
  Solvation  Ediel_sol  =         0.00000000
  ---------------------------------------------------
  free energy    TOTEN  =      -195.19274290 eV

  energy without entropy =     -195.19274290  energy(sigma->0) =     -195.19274290


--------------------------------------------------------------------------------------------------------




--------------------------------------- Iteration      1(  20)  ---------------------------------------


    POTLOK:  cpu time    1.6228: real time    1.6272
    SETDIJ:  cpu time    0.0060: real time    0.0066
    EDDIAG:  cpu time    1.2618: real time    1.2646
  RMM-DIIS:  cpu time    3.9984: real time    4.0095
    ORTHCH:  cpu time    0.2400: real time    0.2403
       DOS:  cpu time    0.0000: real time    0.0002
    CHARGE:  cpu time    0.5609: real time    0.5620
    MIXING:  cpu time    0.1020: real time    0.1023
    --------------------------------------------
      LOOP:  cpu time    7.7918: real time    7.8126

 eigenvalue-minimisations  :   128
 total energy-change (2. order) :-0.8832964E-03  (-0.8231863E-05)
 number of electron      91.9999978 magnetization 
 augmentation part        4.4040277 magnetization 

 Broyden mixing:
  rms(total) = 0.39538E-03    rms(broyden)= 0.39516E-03
  rms(prec ) = 0.57665E-03
  weight for this iteration     100.00

 eigenvalues of (default mixing * dielectric matrix)
  average eigenvalue GAMMA=   2.3249
  8.1472  5.2484  2.9161  2.4458  2.0341  1.8367  1.3081  1.3081  1.0666  0.9552
  0.9552  1.0011  1.0011

 Free energy of the ion-electron system (eV)
  ---------------------------------------------------
  alpha Z        PSCENC =         3.94031330
  Ewald energy   TEWEN  =      8960.65783302
  -Hartree energ DENC   =    -12317.14638264
  -exchange      EXHF   =         0.00000000
  -V(xc)+E(xc)   XCENC  =       345.13355644
  PAW double counting   =      7917.01736343    -7935.79696083
  entropy T*S    EENTRO =        -0.00000000
  eigenvalues    EBANDS =     -1220.76810368
  atomic energy  EATOM  =      4051.76875477
  Solvation  Ediel_sol  =         0.00000000
  ---------------------------------------------------
  free energy    TOTEN  =      -195.19362620 eV

  energy without entropy =     -195.19362620  energy(sigma->0) =     -195.19362620


--------------------------------------------------------------------------------------------------------




--------------------------------------- Iteration      1(  21)  ---------------------------------------


    POTLOK:  cpu time    1.6238: real time    1.6278
    SETDIJ:  cpu time    0.0070: real time    0.0068
    EDDIAG:  cpu time    1.2628: real time    1.2662
  RMM-DIIS:  cpu time    3.2905: real time    3.2976
    ORTHCH:  cpu time    0.2430: real time    0.2440
       DOS:  cpu time    0.0010: real time    0.0002
    CHARGE:  cpu time    0.5619: real time    0.5639
    MIXING:  cpu time    0.1100: real time    0.1103
    --------------------------------------------
      LOOP:  cpu time    7.0999: real time    7.1169

 eigenvalue-minimisations  :   106
 total energy-change (2. order) :-0.3785891E-03  (-0.1989618E-05)
 number of electron      91.9999978 magnetization 
 augmentation part        4.4040618 magnetization 

 Broyden mixing:
  rms(total) = 0.19402E-03    rms(broyden)= 0.19388E-03
  rms(prec ) = 0.31120E-03
  weight for this iteration     100.00

 eigenvalues of (default mixing * dielectric matrix)
  average eigenvalue GAMMA=   2.3573
  8.2991  5.5989  3.2327  2.4291  2.2341  1.8287  1.8287  1.2704  1.2704  1.0648
  0.9685  0.9685  1.0041  1.0041

 Free energy of the ion-electron system (eV)
  ---------------------------------------------------
  alpha Z        PSCENC =         3.94031330
  Ewald energy   TEWEN  =      8960.65783302
  -Hartree energ DENC   =    -12317.18287888
  -exchange      EXHF   =         0.00000000
  -V(xc)+E(xc)   XCENC  =       345.13223718
  PAW double counting   =      7916.31339560    -7935.09289520
  entropy T*S    EENTRO =        -0.00000000
  eigenvalues    EBANDS =     -1220.73076459
  atomic energy  EATOM  =      4051.76875477
  Solvation  Ediel_sol  =         0.00000000
  ---------------------------------------------------
  free energy    TOTEN  =      -195.19400479 eV

  energy without entropy =     -195.19400479  energy(sigma->0) =     -195.19400479


--------------------------------------------------------------------------------------------------------




--------------------------------------- Iteration      1(  22)  ---------------------------------------


    POTLOK:  cpu time    1.6198: real time    1.6251
    SETDIJ:  cpu time    0.0070: real time    0.0066
    EDDIAG:  cpu time    1.2628: real time    1.2655
  RMM-DIIS:  cpu time    3.1225: real time    3.1305
    ORTHCH:  cpu time    0.2420: real time    0.2424
       DOS:  cpu time    0.0010: real time    0.0007
    CHARGE:  cpu time    0.5659: real time    0.5672
    MIXING:  cpu time    0.1180: real time    0.1183
    --------------------------------------------
      LOOP:  cpu time    6.9389: real time    6.9564

 eigenvalue-minimisations  :    98
 total energy-change (2. order) :-0.1921380E-03  (-0.7224424E-06)
 number of electron      91.9999978 magnetization 
 augmentation part        4.4040760 magnetization 

 Broyden mixing:
  rms(total) = 0.13685E-03    rms(broyden)= 0.13676E-03
  rms(prec ) = 0.18763E-03
  weight for this iteration     100.00

 eigenvalues of (default mixing * dielectric matrix)
  average eigenvalue GAMMA=   2.4123
  8.6161  6.1102  3.9433  2.6591  2.2371  2.1178  1.7873  1.3266  1.3266  1.1344
  0.9483  0.9511  0.9511  1.0377  1.0377

 Free energy of the ion-electron system (eV)
  ---------------------------------------------------
  alpha Z        PSCENC =         3.94031330
  Ewald energy   TEWEN  =      8960.65783302
  -Hartree energ DENC   =    -12317.23246790
  -exchange      EXHF   =         0.00000000
  -V(xc)+E(xc)   XCENC  =       345.13244742
  PAW double counting   =      7916.31396321    -7935.09345892
  entropy T*S    EENTRO =        -0.00000000
  eigenvalues    EBANDS =     -1220.68158184
  atomic energy  EATOM  =      4051.76875477
  Solvation  Ediel_sol  =         0.00000000
  ---------------------------------------------------
  free energy    TOTEN  =      -195.19419693 eV

  energy without entropy =     -195.19419693  energy(sigma->0) =     -195.19419693


--------------------------------------------------------------------------------------------------------




--------------------------------------- Iteration      1(  23)  ---------------------------------------


    POTLOK:  cpu time    1.6198: real time    1.6239
    SETDIJ:  cpu time    0.0070: real time    0.0067
    EDDIAG:  cpu time    1.2718: real time    1.2745
  RMM-DIIS:  cpu time    2.8806: real time    2.8894
    ORTHCH:  cpu time    0.2430: real time    0.2431
       DOS:  cpu time    0.0000: real time    0.0003
    CHARGE:  cpu time    0.5629: real time    0.5633
    MIXING:  cpu time    0.1300: real time    0.1310
    --------------------------------------------
      LOOP:  cpu time    6.7150: real time    6.7324

 eigenvalue-minimisations  :    81
 total energy-change (2. order) :-0.6592246E-04  (-0.2993877E-06)
 number of electron      91.9999978 magnetization 
 augmentation part        4.4040608 magnetization 

 Broyden mixing:
  rms(total) = 0.70774E-04    rms(broyden)= 0.70743E-04
  rms(prec ) = 0.10129E-03
  weight for this iteration     100.00

 eigenvalues of (default mixing * dielectric matrix)
  average eigenvalue GAMMA=   2.4522
  8.7644  6.4014  4.2602  2.7305  2.4035  2.4035  1.8060  1.8060  1.2978  1.2978
  1.0492  1.0492  1.0989  0.9540  0.9540  0.9584

 Free energy of the ion-electron system (eV)
  ---------------------------------------------------
  alpha Z        PSCENC =         3.94031330
  Ewald energy   TEWEN  =      8960.65783302
  -Hartree energ DENC   =    -12317.24659592
  -exchange      EXHF   =         0.00000000
  -V(xc)+E(xc)   XCENC  =       345.13250590
  PAW double counting   =      7916.32020400    -7935.09973399
  entropy T*S    EENTRO =        -0.00000000
  eigenvalues    EBANDS =     -1220.66754394
  atomic energy  EATOM  =      4051.76875477
  Solvation  Ediel_sol  =         0.00000000
  ---------------------------------------------------
  free energy    TOTEN  =      -195.19426285 eV

  energy without entropy =     -195.19426285  energy(sigma->0) =     -195.19426285


--------------------------------------------------------------------------------------------------------




--------------------------------------- Iteration      1(  24)  ---------------------------------------


    POTLOK:  cpu time    1.6238: real time    1.6283
    SETDIJ:  cpu time    0.0060: real time    0.0060
    EDDIAG:  cpu time    1.2688: real time    1.2717
  RMM-DIIS:  cpu time    2.8076: real time    2.8144
    ORTHCH:  cpu time    0.2410: real time    0.2418
       DOS:  cpu time    0.0010: real time    0.0004
    CHARGE:  cpu time    0.5609: real time    0.5622
    MIXING:  cpu time    0.1350: real time    0.1353
    --------------------------------------------
      LOOP:  cpu time    6.6440: real time    6.6601

 eigenvalue-minimisations  :    81
 total energy-change (2. order) :-0.3794596E-04  (-0.1238314E-06)
 number of electron      91.9999978 magnetization 
 augmentation part        4.4040469 magnetization 

 Broyden mixing:
  rms(total) = 0.69157E-04    rms(broyden)= 0.69116E-04
  rms(prec ) = 0.80702E-04
  weight for this iteration     100.00

 eigenvalues of (default mixing * dielectric matrix)
  average eigenvalue GAMMA=   2.4481
  8.8453  6.8317  4.6504  3.0635  2.4910  2.2223  1.9285  1.5951  1.5951  1.2652
  1.1044  1.1044  1.1363  0.9569  0.9569  0.9354  0.9354

 Free energy of the ion-electron system (eV)
  ---------------------------------------------------
  alpha Z        PSCENC =         3.94031330
  Ewald energy   TEWEN  =      8960.65783302
  -Hartree energ DENC   =    -12317.25207493
  -exchange      EXHF   =         0.00000000
  -V(xc)+E(xc)   XCENC  =       345.13250493
  PAW double counting   =      7916.41575369    -7935.19522517
  entropy T*S    EENTRO =        -0.00000000
  eigenvalues    EBANDS =     -1220.66216041
  atomic energy  EATOM  =      4051.76875477
  Solvation  Ediel_sol  =         0.00000000
  ---------------------------------------------------
  free energy    TOTEN  =      -195.19430079 eV

  energy without entropy =     -195.19430079  energy(sigma->0) =     -195.19430079


--------------------------------------------------------------------------------------------------------




--------------------------------------- Iteration      1(  25)  ---------------------------------------


    POTLOK:  cpu time    1.6228: real time    1.6291
    SETDIJ:  cpu time    0.0070: real time    0.0063
    EDDIAG:  cpu time    1.2648: real time    1.2678
  RMM-DIIS:  cpu time    2.5856: real time    2.5918
    ORTHCH:  cpu time    0.2490: real time    0.2492
       DOS:  cpu time    0.0000: real time    0.0003
    --------------------------------------------
      LOOP:  cpu time    5.7291: real time    5.7445

 eigenvalue-minimisations  :    60
 total energy-change (2. order) :-0.9171441E-05  (-0.2687970E-07)
 number of electron      91.9999978 magnetization 
 augmentation part        4.4040469 magnetization 

 Free energy of the ion-electron system (eV)
  ---------------------------------------------------
  alpha Z        PSCENC =         3.94031330
  Ewald energy   TEWEN  =      8960.65783302
  -Hartree energ DENC   =    -12317.25604477
  -exchange      EXHF   =         0.00000000
  -V(xc)+E(xc)   XCENC  =       345.13251608
  PAW double counting   =      7916.41620632    -7935.19567395
  entropy T*S    EENTRO =        -0.00000000
  eigenvalues    EBANDS =     -1220.65821474
  atomic energy  EATOM  =      4051.76875477
  Solvation  Ediel_sol  =         0.00000000
  ---------------------------------------------------
  free energy    TOTEN  =      -195.19430997 eV

  energy without entropy =     -195.19430997  energy(sigma->0) =     -195.19430997


--------------------------------------------------------------------------------------------------------




 average (electrostatic) potential at core
  the test charge radii are     0.7215  0.6991  0.7089  0.5201
  (the norm of the test charge is              1.0000)
       1 -79.9187       2 -81.6254       3 -79.7350       4 -81.4721       5 -58.7190
       6 -58.8469       7 -58.5956       8 -58.3560       9 -59.7918      10 -58.5880
      11 -59.8819      12 -62.2697      13 -59.8241      14 -62.0959      15 -59.6949
      16 -74.7881      17 -74.6410      18 -41.9246      19 -41.5822      20 -41.9537
      21 -44.6386      22 -44.4887      23 -42.0712      24 -42.0396      25 -42.0835
      26 -42.3310      27 -42.1409      28 -42.1287      29 -41.9999      30 -42.0173
      31 -42.2111
 
 
 
 E-fermi :  -4.8470     XC(G=0):  -0.4515     alpha+bet : -0.2124


 k-point     1 :       0.0000    0.0000    0.0000
  band No.  band energies     occupation 
      1     -27.7053      2.00000
      2     -27.5563      2.00000
      3     -25.3631      2.00000
      4     -25.1954      2.00000
      5     -23.7955      2.00000
      6     -23.5713      2.00000
      7     -20.9826      2.00000
      8     -19.2594      2.00000
      9     -18.6814      2.00000
     10     -17.9444      2.00000
     11     -17.6039      2.00000
     12     -16.7837      2.00000
     13     -15.7778      2.00000
     14     -15.2327      2.00000
     15     -14.5399      2.00000
     16     -14.1293      2.00000
     17     -13.5645      2.00000
     18     -13.2091      2.00000
     19     -12.9768      2.00000
     20     -11.8498      2.00000
     21     -11.7967      2.00000
     22     -11.6971      2.00000
     23     -11.5013      2.00000
     24     -11.1607      2.00000
     25     -10.8261      2.00000
     26     -10.7938      2.00000
     27     -10.6293      2.00000
     28     -10.4115      2.00000
     29     -10.1772      2.00000
     30     -10.0834      2.00000
     31     -10.0545      2.00000
     32     -10.0123      2.00000
     33      -9.4797      2.00000
     34      -8.9867      2.00000
     35      -8.7234      2.00000
     36      -8.7087      2.00000
     37      -8.5589      2.00000
     38      -8.3547      2.00000
     39      -8.0011      2.00000
     40      -7.1754      2.00000
     41      -7.0511      2.00000
     42      -6.9934      2.00000
     43      -6.4843      2.00000
     44      -6.3109      2.00000
     45      -5.5686      2.00000
     46      -5.0661      2.00000
     47      -1.1932      0.00000
     48      -1.0765      0.00000
     49      -0.6170      0.00000
     50      -0.3352      0.00000
     51      -0.1867      0.00000
     52      -0.0093      0.00000
     53       0.0189      0.00000
     54       0.0569      0.00000
     55       0.2274      0.00000
     56       0.2364      0.00000
     57       0.3086      0.00000
     58       0.4397      0.00000
     59       0.4832      0.00000
     60       0.4889      0.00000
     61       0.5461      0.00000
     62       0.5867      0.00000
     63       0.6023      0.00000
     64       0.6090      0.00000
     65       0.6564      0.00000
     66       0.6905      0.00000
     67       0.7188      0.00000
     68       0.7374      0.00000
     69       0.8374      0.00000
     70       0.9092      0.00000
     71       1.0338      0.00000
     72       2.0533      0.00000


--------------------------------------------------------------------------------------------------------


 soft charge-density along one line, spin component           1
         0         1         2         3         4         5         6         7         8         9
 total charge-density along one line
 
 pseudopotential strength for first ion, spin component:           1
 13.692 -16.778  -0.128   0.017   0.047   0.160  -0.022  -0.059
-16.778  20.590   0.162  -0.022  -0.059  -0.205   0.028   0.075
 -0.128   0.162 -10.435   0.018   0.067  12.914  -0.024  -0.090
  0.017  -0.022   0.018 -10.323  -0.001  -0.024  12.766   0.001
  0.047  -0.059   0.067  -0.001 -10.275  -0.090   0.001  12.700
  0.160  -0.205  12.914  -0.024  -0.090 -15.906   0.033   0.121
 -0.022   0.028  -0.024  12.766   0.001   0.033 -15.709  -0.001
 -0.059   0.075  -0.090   0.001  12.700   0.121  -0.001 -15.618
 total augmentation occupancy for first ion, spin component:           1
  2.814   0.484   0.551  -0.076  -0.203   0.237  -0.032  -0.087
  0.484   0.163   0.482  -0.066  -0.176   0.121  -0.017  -0.044
  0.551   0.482   2.602  -0.081  -0.155   0.495  -0.040  -0.112
 -0.076  -0.066  -0.081   1.927   0.050  -0.040   0.211   0.013
 -0.203  -0.176  -0.155   0.050   2.217  -0.112   0.013   0.226
  0.237   0.121   0.495  -0.040  -0.112   0.109  -0.011  -0.030
 -0.032  -0.017  -0.040   0.211   0.013  -0.011   0.028   0.004
 -0.087  -0.044  -0.112   0.013   0.226  -0.030   0.004   0.034


------------------------ aborting loop because EDIFF is reached ----------------------------------------


    CHARGE:  cpu time    0.5619: real time    0.5631
    FORLOC:  cpu time    0.2930: real time    0.2935
    FORNL :  cpu time    1.3238: real time    1.3268
    STRESS:  cpu time    3.9724: real time    3.9834
    FORCOR:  cpu time    1.7717: real time    1.7757
    FORHAR:  cpu time    0.6469: real time    0.6485
    MIXING:  cpu time    0.1400: real time    0.1404
    OFIELD:  cpu time    0.0000: real time    0.0000

  DFT-D2 method for vdW energy calculation
  -------------------------------------------------------------------

  Parameters of vdW forcefield:
         C6(Jnm^6/mol)     R0(A)
   -----------------------------
   O        0.700          1.342
   C        1.750          1.452
   N        1.230          1.397
   H        0.140          1.001

  IVDW =   1
  VDW_RADIUS =    40.000 A
  VDW_S6 =     0.750
  VDW_SR =     1.000
  VDW_D =    20.000
  LVDW_EWALD = F

  Number of pair interactions contributing to vdW energy:   13873
  Edisp (eV):   -0.66107
    FORVDW:  cpu time    0.0200: real time    0.0215

  FORCE on cell =-STRESS in cart. coord.  units (eV):
  Direction    XX          YY          ZZ          XY          YZ          ZX
  --------------------------------------------------------------------------------------
  Alpha Z     3.94031     3.94031     3.94031
  Ewald    5443.98494  6269.00449 -2752.33554  1332.51909   121.37734   821.51387
  Hartree  6028.07041  6721.55650  -432.36958  1222.71594   140.63527   594.93215
  E(xc)    -369.07639  -368.80398  -376.59733     0.06437    -0.18801     1.01864
  Local  -12416.29403-13938.35204  2067.19619 -2561.53772  -268.28326 -1390.63637
  n-local  -205.73747  -205.33872  -206.63199     3.09020     0.90914     0.01553
  augment    24.83471    24.83825    28.81232     0.17826     0.16157    -0.73821
  Kinetic  1488.55323  1491.66850  1666.11364     2.78923     5.37038   -26.05791
  Fock        0.00000     0.00000     0.00000     0.00000     0.00000     0.00000
  vdW         0.12613    -0.05275     0.13963    -0.08470    -0.02027     0.00228
  -------------------------------------------------------------------------------------
  Total      -1.59815    -1.53944    -1.73233    -0.26533    -0.03785     0.04999
  in kB      -0.27711    -0.26693    -0.30038    -0.04601    -0.00656     0.00867
  external pressure =       -0.28 kB  Pullay stress =        0.00 kB


 VOLUME and BASIS-vectors are now :
 -----------------------------------------------------------------------------
  energy-cutoff  :      450.00
  volume of cell :     9240.00
      direct lattice vectors                 reciprocal lattice vectors
    20.000000000  0.000000000  0.000000000     0.050000000  0.000000000  0.000000000
     0.000000000 21.000000000  0.000000000     0.000000000  0.047619048  0.000000000
     0.000000000  0.000000000 22.000000000     0.000000000  0.000000000  0.045454545

  length of vectors
    20.000000000 21.000000000 22.000000000     0.050000000  0.047619048  0.045454545


 FORCES acting on ions
    electron-ion (+dipol)            ewald-force                    non-local-force                 convergence-correction
 -----------------------------------------------------------------------------------------------
   -.256E+03 0.339E+03 -.693E+02   0.274E+03 -.391E+03 0.764E+02   -.189E+02 0.517E+02 -.710E+01   -.254E-04 -.153E-05 -.324E-04
   -.142E+03 -.327E+03 0.133E+02   0.130E+03 0.367E+03 -.186E+02   0.116E+02 -.404E+02 0.532E+01   -.342E-03 -.349E-04 -.599E-04
   0.434E+03 0.299E+02 0.101E+03   -.487E+03 -.207E+02 -.113E+03   0.535E+02 -.915E+01 0.124E+02   0.838E-04 0.821E-04 0.114E-04
   -.198E+03 0.277E+03 -.510E+02   0.238E+03 -.287E+03 0.614E+02   -.401E+02 0.102E+02 -.104E+02   0.261E-03 0.139E-03 0.874E-04
   0.797E+02 -.222E+03 0.111E+02   -.804E+02 0.222E+03 -.111E+02   0.671E+00 -.198E+00 -.108E-01   -.472E-04 0.503E-04 0.268E-06
[...]
  -------------------------------------------------------------------------------------
  Total      -1.51591    -1.49100    -1.85527    -0.06595    -0.03417     0.06468
  in kB      -0.26285    -0.25853    -0.32170    -0.01143    -0.00593     0.01122
  external pressure =       -0.28 kB  Pullay stress =        0.00 kB



--------------------------------------------------------------------------------------------------------



  FREE ENERGIE OF THE ION-ELECTRON SYSTEM (eV)
  ---------------------------------------------------
  free  energy   TOTEN  =      -195.85732123 eV

  energy  without entropy=     -195.85732123  energy(sigma->0) =     -195.85732123
 
 d Force = 0.6610949E-04[ 0.225E-04, 0.110E-03]  d Energy = 0.6809794E-04-0.199E-05
 d Force =-0.3228464E+00[-0.323E+00,-0.323E+00]  d Ewald  =-0.3228464E+00-0.156E-07


--------------------------------------------------------------------------------------------------------


    POTLOK:  cpu time    1.6288: real time    1.6514


--------------------------------------------------------------------------------------------------------


 Conjugate gradient step on ions:
 trial-energy change:   -0.000068  1 .order   -0.000066   -0.000110   -0.000022
  (g-gl).g = 0.866E-04      g.g   = 0.104E-03  gl.gl    = 0.172E-03
 g(Force)  = 0.104E-03   g(Stress)= 0.000E+00 ortho     =-0.452E-06
 gamma     =   0.50241
 trial     =   1.05367
 opt step  =   1.32513  (harmonic =   1.32513) maximal distance =0.00076444
 next E    =  -195.857322   (d E  =  -0.00007)


--------------------------------------------------------------------------------------------------------


    WAVPRE:  cpu time    0.7359: real time    0.7400
    FEWALD:  cpu time    0.0010: real time    0.0010
    ORTHCH:  cpu time    0.6749: real time    0.6859
     LOOP+:  cpu time   48.5096: real time   49.0950


--------------------------------------- Iteration     19(   1)  ---------------------------------------


    POTLOK:  cpu time    1.6388: real time    1.6625
    SETDIJ:  cpu time    0.0060: real time    0.0061
     EDDAV:  cpu time    7.3589: real time    7.4392
       DOS:  cpu time    0.0010: real time    0.0003
    CHARGE:  cpu time    0.5629: real time    0.5749
    MIXING:  cpu time    0.0400: real time    0.0402
    --------------------------------------------
      LOOP:  cpu time    9.6075: real time    9.7233

 eigenvalue-minimisations  :   180
 total energy-change (2. order) : 0.4072214E-05  (-0.8970375E-04)
 number of electron      91.9999994 magnetization 
 augmentation part        4.4035736 magnetization 

  free energy =  -0.195193981116E+03  energy without entropy=  -0.195193981116E+03


--------------------------------------------------------------------------------------------------------




--------------------------------------- Iteration     19(   2)  ---------------------------------------


    POTLOK:  cpu time    1.6437: real time    1.6577
    SETDIJ:  cpu time    0.0060: real time    0.0061
    EDDIAG:  cpu time    1.2518: real time    1.2715
  RMM-DIIS:  cpu time    3.2285: real time    3.2667
    ORTHCH:  cpu time    0.2430: real time    0.2437
       DOS:  cpu time    0.0000: real time    0.0002
    CHARGE:  cpu time    0.5609: real time    0.5701
    MIXING:  cpu time    0.0440: real time    0.0439
    --------------------------------------------
      LOOP:  cpu time    6.9779: real time    7.0599

 eigenvalue-minimisations  :   101
 total energy-change (2. order) :-0.1389313E-05  (-0.1819257E-05)
 number of electron      91.9999994 magnetization 
 augmentation part        4.4035739 magnetization 

 eigenvalues of (default mixing * dielectric matrix)
  average eigenvalue GAMMA=   1.2003
  1.2003

  free energy =  -0.195193982505E+03  energy without entropy=  -0.195193982505E+03


--------------------------------------------------------------------------------------------------------




--------------------------------------- Iteration     19(   3)  ---------------------------------------


    POTLOK:  cpu time    1.6408: real time    1.6567
    SETDIJ:  cpu time    0.0060: real time    0.0067
    EDDIAG:  cpu time    1.2478: real time    1.2702
  RMM-DIIS:  cpu time    2.9785: real time    3.0149
    ORTHCH:  cpu time    0.2420: real time    0.2424
       DOS:  cpu time    0.0010: real time    0.0006
    CHARGE:  cpu time    0.5599: real time    0.5619
    MIXING:  cpu time    0.0470: real time    0.0473
    --------------------------------------------
      LOOP:  cpu time    6.7230: real time    6.8007

 eigenvalue-minimisations  :    96
 total energy-change (2. order) :-0.2072957E-06  (-0.1795799E-06)
 number of electron      91.9999994 magnetization 
 augmentation part        4.4035774 magnetization 

 eigenvalues of (default mixing * dielectric matrix)
  average eigenvalue GAMMA=   1.6413
  1.0788  2.2038

  free energy =  -0.195193982713E+03  energy without entropy=  -0.195193982713E+03


--------------------------------------------------------------------------------------------------------




--------------------------------------- Iteration     19(   4)  ---------------------------------------


    POTLOK:  cpu time    1.6418: real time    1.6638
    SETDIJ:  cpu time    0.0060: real time    0.0061
    EDDIAG:  cpu time    1.2538: real time    1.2655
  RMM-DIIS:  cpu time    2.5166: real time    2.5529
    ORTHCH:  cpu time    0.2430: real time    0.2439
       DOS:  cpu time    0.0000: real time    0.0002
    CHARGE:  cpu time    0.5519: real time    0.5628
    MIXING:  cpu time    0.0480: real time    0.0485
    --------------------------------------------
      LOOP:  cpu time    6.2610: real time    6.3437

 eigenvalue-minimisations  :    68
 total energy-change (2. order) :-0.2767747E-06  (-0.3386376E-07)
 number of electron      91.9999994 magnetization 
 augmentation part        4.4035790 magnetization 

 eigenvalues of (default mixing * dielectric matrix)
  average eigenvalue GAMMA=   1.5811
  2.5301  1.1065  1.1065

  free energy =  -0.195193982989E+03  energy without entropy=  -0.195193982989E+03


--------------------------------------------------------------------------------------------------------




--------------------------------------- Iteration     19(   5)  ---------------------------------------


    POTLOK:  cpu time    1.6488: real time    1.6634
    SETDIJ:  cpu time    0.0070: real time    0.0065
    EDDIAG:  cpu time    1.2518: real time    1.2738
  RMM-DIIS:  cpu time    2.4606: real time    2.4859
    ORTHCH:  cpu time    0.2440: real time    0.2441
       DOS:  cpu time    0.0000: real time    0.0002
    --------------------------------------------
      LOOP:  cpu time    5.6121: real time    5.6738

 eigenvalue-minimisations  :    60
 total energy-change (2. order) :-0.2016577E-06  (-0.1078841E-07)
 number of electron      91.9999994 magnetization 
 augmentation part        4.4035790 magnetization 

  free energy =  -0.195193983191E+03  energy without entropy=  -0.195193983191E+03


--------------------------------------------------------------------------------------------------------




------------------------ aborting loop because EDIFF is reached ----------------------------------------


    CHARGE:  cpu time    0.5509: real time    0.5624
    FORLOC:  cpu time    0.2860: real time    0.2870
    FORNL :  cpu time    1.3058: real time    1.3196
    STRESS:  cpu time    3.9484: real time    3.9919
    FORCOR:  cpu time    1.7467: real time    1.7714
    FORHAR:  cpu time    0.6469: real time    0.6571
    MIXING:  cpu time    0.0480: real time    0.0478
    OFIELD:  cpu time    0.0000: real time    0.0000

  Number of pair interactions contributing to vdW energy:   13872
  Edisp (eV):   -0.66334
    FORVDW:  cpu time    0.0030: real time    0.0034

  FORCE on cell =-STRESS in cart. coord.  units (eV):
  Direction    XX          YY          ZZ          XY          YZ          ZX
  --------------------------------------------------------------------------------------
  Alpha Z     3.94031     3.94031     3.94031
  Ewald    5447.78431  6271.83538 -2755.84323  1330.01844   126.28135   817.61956
  Hartree  6030.39518  6723.96859  -434.07640  1221.18236   143.35620   592.25653
  E(xc)    -369.06400  -368.79312  -376.59933     0.05873    -0.17678     1.01099
  Local  -12422.17906-13943.58665  2072.11100 -2557.66017  -275.63967 -1384.23755
  n-local  -205.68227  -205.29558  -206.56494     3.05812     0.87037     0.04097
  augment    24.82487    24.83621    28.81781     0.18700     0.15734    -0.73041
  Kinetic  1488.34353  1491.65860  1666.21980     3.16948     5.13485   -25.89634
  Fock        0.00000     0.00000     0.00000     0.00000     0.00000     0.00000
  vdW         0.13301    -0.04584     0.14106    -0.08490    -0.02095     0.00169
  -------------------------------------------------------------------------------------
  Total      -1.50411    -1.48210    -1.85393    -0.07095    -0.03730     0.06545
  in kB      -0.26081    -0.25699    -0.32146    -0.01230    -0.00647     0.01135
  external pressure =       -0.28 kB  Pullay stress =        0.00 kB



--------------------------------------------------------------------------------------------------------



  FREE ENERGIE OF THE ION-ELECTRON SYSTEM (eV)
  ---------------------------------------------------
  free  energy   TOTEN  =      -195.85732516 eV

  energy  without entropy=     -195.85732516  energy(sigma->0) =     -195.85732516
 
 d Force = 0.3176120E-05[ 0.560E-06, 0.579E-05]  d Energy = 0.3934384E-05-0.758E-06
 d Force =-0.8311074E-01[-0.831E-01,-0.831E-01]  d Ewald  =-0.8311073E-01-0.497E-09


--------------------------------------------------------------------------------------------------------


    POTLOK:  cpu time    1.6418: real time    1.6563


--------------------------------------------------------------------------------------------------------




--------------------------------------------------------------------------------------------------------


    WAVPRE:  cpu time    0.7249: real time    0.7366
    FEWALD:  cpu time    0.0010: real time    0.0010
    ORTHCH:  cpu time    0.6759: real time    0.6868
     LOOP+:  cpu time   46.7749: real time   47.3409


--------------------------------------- Iteration     20(   1)  ---------------------------------------


    POTLOK:  cpu time    1.6557: real time    1.6706
    SETDIJ:  cpu time    0.0060: real time    0.0061
     EDDAV:  cpu time    6.9789: real time    7.0599
       DOS:  cpu time    0.0000: real time    0.0003
    CHARGE:  cpu time    0.5629: real time    0.5724
    MIXING:  cpu time    0.0390: real time    0.0398
    --------------------------------------------
      LOOP:  cpu time    9.2426: real time    9.3491

 eigenvalue-minimisations  :   168
 total energy-change (2. order) :-0.6449136E-04  (-0.9659467E-03)
 number of electron      91.9999995 magnetization 
 augmentation part        4.4035605 magnetization 

  free energy =  -0.195194047481E+03  energy without entropy=  -0.195194047481E+03


--------------------------------------------------------------------------------------------------------




--------------------------------------- Iteration     20(   2)  ---------------------------------------


    POTLOK:  cpu time    1.6458: real time    1.6722
    SETDIJ:  cpu time    0.0060: real time    0.0060
    EDDIAG:  cpu time    1.2528: real time    1.2645
  RMM-DIIS:  cpu time    4.2684: real time    4.3218
    ORTHCH:  cpu time    0.2430: real time    0.2434
       DOS:  cpu time    0.0000: real time    0.0004
    CHARGE:  cpu time    0.5489: real time    0.5608
    MIXING:  cpu time    0.0430: real time    0.0433
    --------------------------------------------
      LOOP:  cpu time    8.0078: real time    8.1124

 eigenvalue-minimisations  :   144
 total energy-change (2. order) :-0.1495104E-04  (-0.2070421E-04)
 number of electron      91.9999995 magnetization 
 augmentation part        4.4035881 magnetization 

 eigenvalues of (default mixing * dielectric matrix)
  average eigenvalue GAMMA=   0.9864
  0.9864

  free energy =  -0.195194062432E+03  energy without entropy=  -0.195194062432E+03


--------------------------------------------------------------------------------------------------------




--------------------------------------- Iteration     20(   3)  ---------------------------------------


    POTLOK:  cpu time    1.6597: real time    1.6796
    SETDIJ:  cpu time    0.0060: real time    0.0063
    EDDIAG:  cpu time    1.2528: real time    1.2682
  RMM-DIIS:  cpu time    2.9306: real time    2.9677
    ORTHCH:  cpu time    0.2420: real time    0.2427
       DOS:  cpu time    0.0000: real time    0.0003
    CHARGE:  cpu time    0.5609: real time    0.5696
    MIXING:  cpu time    0.0480: real time    0.0481
    --------------------------------------------
      LOOP:  cpu time    6.7000: real time    6.7824

 eigenvalue-minimisations  :    96
 total energy-change (2. order) : 0.6860128E-06  (-0.5989354E-06)
 number of electron      91.9999995 magnetization 
 augmentation part        4.4036067 magnetization 

 eigenvalues of (default mixing * dielectric matrix)
  average eigenvalue GAMMA=   1.6293
  0.9714  2.2871

  free energy =  -0.195194061746E+03  energy without entropy=  -0.195194061746E+03


--------------------------------------------------------------------------------------------------------




--------------------------------------- Iteration     20(   4)  ---------------------------------------


    POTLOK:  cpu time    1.6647: real time    1.6783
    SETDIJ:  cpu time    0.0070: real time    0.0064
    EDDIAG:  cpu time    1.2488: real time    1.2711
  RMM-DIIS:  cpu time    2.9406: real time    2.9738
    ORTHCH:  cpu time    0.2410: real time    0.2434
       DOS:  cpu time    0.0000: real time    0.0004
    CHARGE:  cpu time    0.5599: real time    0.5605
    MIXING:  cpu time    0.0490: real time    0.0494
    --------------------------------------------
      LOOP:  cpu time    6.7110: real time    6.7834

 eigenvalue-minimisations  :    96
 total energy-change (2. order) :-0.1139139E-05  (-0.4726900E-06)
 number of electron      91.9999995 magnetization 
 augmentation part        4.4036013 magnetization 

 eigenvalues of (default mixing * dielectric matrix)
  average eigenvalue GAMMA=   1.4721
  2.2184  1.0990  1.0990

  free energy =  -0.195194062885E+03  energy without entropy=  -0.195194062885E+03


--------------------------------------------------------------------------------------------------------




--------------------------------------- Iteration     20(   5)  ---------------------------------------


    POTLOK:  cpu time    1.6597: real time    1.6818
    SETDIJ:  cpu time    0.0060: real time    0.0064
    EDDIAG:  cpu time    1.2558: real time    1.2670
  RMM-DIIS:  cpu time    2.8046: real time    2.8411
    ORTHCH:  cpu time    0.2430: real time    0.2428
       DOS:  cpu time    0.0000: real time    0.0006
    --------------------------------------------
      LOOP:  cpu time    5.9691: real time    6.0396

 eigenvalue-minimisations  :    84
 total energy-change (2. order) :-0.4906815E-07  (-0.6853961E-07)
 number of electron      91.9999995 magnetization 
 augmentation part        4.4036013 magnetization 

  free energy =  -0.195194062934E+03  energy without entropy=  -0.195194062934E+03


--------------------------------------------------------------------------------------------------------




------------------------ aborting loop because EDIFF is reached ----------------------------------------


    CHARGE:  cpu time    0.5509: real time    0.5622
    FORLOC:  cpu time    0.2860: real time    0.2862
    FORNL :  cpu time    1.3268: real time    1.3381
    STRESS:  cpu time    3.9774: real time    4.0275
    FORCOR:  cpu time    1.7407: real time    1.7660
    FORHAR:  cpu time    0.6439: real time    0.6560
    MIXING:  cpu time    0.0470: real time    0.0478
    OFIELD:  cpu time    0.0000: real time    0.0000

  Number of pair interactions contributing to vdW energy:   13872
  Edisp (eV):   -0.66333
    FORVDW:  cpu time    0.0040: real time    0.0034

  FORCE on cell =-STRESS in cart. coord.  units (eV):
  Direction    XX          YY          ZZ          XY          YZ          ZX
  --------------------------------------------------------------------------------------
  Alpha Z     3.94031     3.94031     3.94031
  Ewald    5448.00607  6271.97756 -2756.05718  1330.05337   126.74996   817.13155
  Hartree  6030.55864  6724.10466  -434.22640  1221.13617   143.61458   591.93611
  E(xc)    -369.06349  -368.79301  -376.59971     0.05919    -0.17565     1.01021
  Local  -12422.56802-13943.87086  2072.47691 -2557.62733  -276.33464 -1383.45515
  n-local  -205.68428  -205.29323  -206.56526     3.05858     0.86855     0.04098
  augment    24.82515    24.83684    28.81851     0.18646     0.15652    -0.72943
  Kinetic  1488.33683  1491.65932  1666.21960     3.14558     5.10531   -25.87314
  Fock        0.00000     0.00000     0.00000     0.00000     0.00000     0.00000
  vdW         0.13329    -0.04575     0.14107    -0.08480    -0.02097     0.00163
  -------------------------------------------------------------------------------------
  Total      -1.51550    -1.48416    -1.85215    -0.07278    -0.03635     0.06276
  in kB      -0.26278    -0.25735    -0.32116    -0.01262    -0.00630     0.01088
  external pressure =       -0.28 kB  Pullay stress =        0.00 kB



--------------------------------------------------------------------------------------------------------



  FREE ENERGIE OF THE ION-ELECTRON SYSTEM (eV)
  ---------------------------------------------------
  free  energy   TOTEN  =      -195.85739787 eV

  energy  without entropy=     -195.85739787  energy(sigma->0) =     -195.85739787
 
 d Force = 0.7253536E-04[ 0.566E-04, 0.885E-04]  d Energy = 0.7270669E-04-0.171E-06
 d Force =-0.1500103E+00[-0.150E+00,-0.150E+00]  d Ewald  =-0.1500103E+00-0.248E-07


--------------------------------------------------------------------------------------------------------


    POTLOK:  cpu time    1.6507: real time    1.6722


--------------------------------------------------------------------------------------------------------


 Conjugate gradient step on ions:
 trial-energy change:   -0.000073  1 .order   -0.000073   -0.000089   -0.000057
  (g-gl).g = 0.798E-04      g.g   = 0.783E-04  gl.gl    = 0.104E-03
 g(Force)  = 0.783E-04   g(Stress)= 0.000E+00 ortho     = 0.206E-05
 gamma     =   0.76455
 trial     =   1.10796
 opt step  =   3.06819  (harmonic =   3.06819) maximal distance =0.00178026
 next E    =  -195.857448   (d E  =  -0.00012)


--------------------------------------------------------------------------------------------------------


  
 reached required accuracy - stopping structural energy minimisation
     LOOP+:  cpu time   46.8709: real time   47.4435
    4ORBIT:  cpu time    0.0000: real time    0.0000

 total amount of memory used by VASP MPI-rank0   219118. kBytes
=======================================================================

   base      :      30000. kBytes
   nonlr-proj:       2792. kBytes
   fftplans  :      38602. kBytes
   grid      :     128386. kBytes
   one-center:         95. kBytes
   wavefun   :      19243. kBytes
 
  
  
 General timing and accounting informations for this job:
 ========================================================
  
                  Total CPU time used (sec):     1141.396
                            User time (sec):     1102.405
                          System time (sec):       38.990
                         Elapsed time (sec):     1146.980
  
                   Maximum memory used (kb):      642572.
                   Average memory used (kb):           0.
  
                          Minor page faults:      1699433
                          Major page faults:            0
                 Voluntary context switches:         1893
