 vasp.5.4.4.18Apr17-6-g9f103f2a35 (build May 11 2017 09:47:33) complex          
  
 executed on            tekla2IFC date 2022.05.24  18:48:33
 running on   12 total cores
 distrk:  each k-point on   12 cores,    1 groups
 distr:  one band on NCORES_PER_BAND=   1 cores,   12 groups


--------------------------------------------------------------------------------------------------------


 INCAR:
 POTCAR:    PAW_PBE O 08Apr2002                   
 POTCAR:    PAW_PBE C 08Apr2002                   
 POTCAR:    PAW_PBE N 08Apr2002                   
 POTCAR:    PAW_PBE H 15Jun2001                   

 ----------------------------------------------------------------------------- 
|                                                                             |
|           W    W    AA    RRRRR   N    N  II  N    N   GGGG   !!!           |
|           W    W   A  A   R    R  NN   N  II  NN   N  G    G  !!!           |
|           W    W  A    A  R    R  N N  N  II  N N  N  G       !!!           |
|           W WW W  AAAAAA  RRRRR   N  N N  II  N  N N  G  GGG   !            |
|           WW  WW  A    A  R   R   N   NN  II  N   NN  G    G                |
|           W    W  A    A  R    R  N    N  II  N    N   GGGG   !!!           |
|                                                                             |
|      For optimal performance we recommend to set                            |
|        NCORE= 4 - approx SQRT( number of cores)                             |
|      NCORE specifies how many cores store one orbital (NPAR=cpu/NCORE).     |
|      This setting can  greatly improve the performance of VASP for DFT.     |
|      The default,   NCORE=1            might be grossly inefficient         |
|      on modern multi-core architectures or massively parallel machines.     |
|      Do your own testing !!!!                                               |
|      Unfortunately you need to use the default for GW and RPA calculations. |
|      (for HF NCORE is supported but not extensively tested yet)             |
|                                                                             |
 ----------------------------------------------------------------------------- 

 POTCAR:    PAW_PBE O 08Apr2002                   
  local pseudopotential read in
  partial core-charges read in
  partial kinetic energy density read in
  kinetic energy density of atom read in
  atomic valenz-charges read in
  non local Contribution for L=           0  read in
    real space projection operators read in
  non local Contribution for L=           0  read in
    real space projection operators read in
  non local Contribution for L=           1  read in
    real space projection operators read in
  non local Contribution for L=           1  read in
    real space projection operators read in
    PAW grid and wavefunctions read in
 
   number of l-projection  operators is LMAX  =           4
   number of lm-projection operators is LMMAX =           8
 
 POTCAR:    PAW_PBE C 08Apr2002                   
  local pseudopotential read in
  partial core-charges read in
  partial kinetic energy density read in
  atomic valenz-charges read in
  non local Contribution for L=           0  read in
    real space projection operators read in
  non local Contribution for L=           0  read in
    real space projection operators read in
  non local Contribution for L=           1  read in
    real space projection operators read in
  non local Contribution for L=           1  read in
    real space projection operators read in
    PAW grid and wavefunctions read in
 
   number of l-projection  operators is LMAX  =           4
   number of lm-projection operators is LMMAX =           8
 
 POTCAR:    PAW_PBE N 08Apr2002                   
  local pseudopotential read in
  partial core-charges read in
  partial kinetic energy density read in
  atomic valenz-charges read in
  non local Contribution for L=           0  read in
    real space projection operators read in
  non local Contribution for L=           0  read in
    real space projection operators read in
  non local Contribution for L=           1  read in
    real space projection operators read in
  non local Contribution for L=           1  read in
    real space projection operators read in
    PAW grid and wavefunctions read in
 
   number of l-projection  operators is LMAX  =           4
   number of lm-projection operators is LMMAX =           8
 
 POTCAR:    PAW_PBE H 15Jun2001                   
  local pseudopotential read in
  atomic valenz-charges read in
  non local Contribution for L=           0  read in
    real space projection operators read in
  non local Contribution for L=           0  read in
    real space projection operators read in
  non local Contribution for L=           1  read in
    real space projection operators read in
    PAW grid and wavefunctions read in
 
   number of l-projection  operators is LMAX  =           3
   number of lm-projection operators is LMMAX =           5
 
 Optimization of the real space projectors (new method)

 maximal supplied QI-value         = 24.76
 optimisation between [QCUT,QGAM] = [ 10.64, 21.54] = [ 31.73,129.89] Ry 
 Optimized for a Real-space Cutoff    1.23 Angstroem

   l    n(q)    QCUT    max X(q) W(low)/X(q) W(high)/X(q)  e(spline) 
   0      8    10.645    20.381    0.38E-03    0.60E-03    0.15E-06
   0      8    10.645    15.268    0.40E-03    0.65E-03    0.17E-06
   1      7    10.645     5.964    0.30E-03    0.63E-03    0.18E-06
   1      7    10.645     5.382    0.24E-03    0.53E-03    0.16E-06
 Optimization of the real space projectors (new method)

 maximal supplied QI-value         = 25.13
 optimisation between [QCUT,QGAM] = [ 10.81, 21.61] = [ 32.71,130.83] Ry 
 Optimized for a Real-space Cutoff    1.23 Angstroem

   l    n(q)    QCUT    max X(q) W(low)/X(q) W(high)/X(q)  e(spline) 
   0      8    10.807   115.676    0.36E-03    0.72E-03    0.24E-06
   0      8    10.807    87.132    0.35E-03    0.71E-03    0.24E-06
   1      7    10.807     4.429    0.19E-03    0.39E-03    0.11E-06
   1      7    10.807     2.733    0.14E-03    0.28E-03    0.13E-06
 Optimization of the real space projectors (new method)

 maximal supplied QI-value         = 25.13
 optimisation between [QCUT,QGAM] = [ 10.81, 21.61] = [ 32.71,130.83] Ry 
 Optimized for a Real-space Cutoff    1.23 Angstroem

   l    n(q)    QCUT    max X(q) W(low)/X(q) W(high)/X(q)  e(spline) 
   0      8    10.807    79.467    0.34E-03    0.68E-03    0.21E-06
   0      8    10.807    66.151    0.34E-03    0.67E-03    0.21E-06
   1      7    10.807    14.030    0.45E-03    0.13E-02    0.11E-05
   1      7    10.807     9.831    0.48E-03    0.13E-02    0.11E-05
 Optimization of the real space projectors (new method)

 maximal supplied QI-value         = 34.20
 optimisation between [QCUT,QGAM] = [ 10.60, 21.55] = [ 31.48,130.03] Ry 
 Optimized for a Real-space Cutoff    1.23 Angstroem

   l    n(q)    QCUT    max X(q) W(low)/X(q) W(high)/X(q)  e(spline) 
   0      8    10.603    19.460    0.37E-03    0.59E-03    0.23E-06
   0      8    10.603    12.209    0.35E-03    0.56E-03    0.22E-06
   1      7    10.603     4.655    0.70E-04    0.28E-03    0.29E-06
  PAW_PBE O 08Apr2002                   :
 energy of atom  1       EATOM= -432.3788
 kinetic energy error for atom=    0.0389 (will be added to EATOM!!)
  PAW_PBE C 08Apr2002                   :
 energy of atom  2       EATOM= -147.1560
 kinetic energy error for atom=    0.0116 (will be added to EATOM!!)
  PAW_PBE N 08Apr2002                   :
 energy of atom  3       EATOM= -264.5486
 kinetic energy error for atom=    0.0253 (will be added to EATOM!!)
  PAW_PBE H 15Jun2001                   :
 energy of atom  4       EATOM=  -12.4884
 kinetic energy error for atom=    0.0045 (will be added to EATOM!!)
 
 
 POSCAR: O  C  N  H                              
  positions in direct lattice
  velocities in cartesian coordinates
 exchange correlation table for  LEXCH =        8
   RHO(1)=    0.500       N(1)  =     2000
   RHO(2)=  100.500       N(2)  =     4000
 


--------------------------------------------------------------------------------------------------------


 ion  position               nearest neighbor table
   1  0.649  0.387  0.468-  10 1.22
   2  0.662  0.495  0.452-  10 1.38  11 1.44
   3  0.433  0.515  0.433-  21 1.10  20 1.10  22 1.10   4 1.51
   4  0.440  0.444  0.440-   5 1.40   9 1.42   3 1.51
   5  0.384  0.405  0.441-  14 1.09   6 1.39   4 1.40
   6  0.388  0.339  0.448-  15 1.09   5 1.39   7 1.40
   7  0.451  0.310  0.454-  13 1.39   6 1.40   8 1.40
   8  0.508  0.348  0.454-  16 1.09   9 1.40   7 1.40
   9  0.503  0.415  0.447-   8 1.40  12 1.41   4 1.42
  10  0.625  0.440  0.457-   1 1.22  12 1.37   2 1.38
  11  0.733  0.487  0.465-  23 1.09  25 1.10  24 1.10   2 1.44
  12  0.560  0.454  0.447-  17 1.01  10 1.37   9 1.41
  13  0.456  0.245  0.464-  18 1.01  19 1.01   7 1.39
  14  0.334  0.427  0.436-   5 1.09
  15  0.343  0.310  0.448-   6 1.09
  16  0.558  0.327  0.459-   8 1.09
  17  0.551  0.501  0.439-  12 1.01
  18  0.418  0.218  0.448-  13 1.01
  19  0.502  0.225  0.454-  13 1.01
  20  0.453  0.542  0.472-   3 1.10
  21  0.380  0.529  0.429-   3 1.10
  22  0.459  0.533  0.392-   3 1.10
  23  0.756  0.533  0.454-  11 1.09
  24  0.740  0.476  0.513-  11 1.10
  25  0.754  0.448  0.437-  11 1.10
 
  LATTYP: Found a simple orthorhombic cell.
 ALAT       =    20.0000000000
 B/A-ratio  =     1.0500000000
 C/A-ratio  =     1.1000000000
  
  Lattice vectors:
  
 A1 = (  20.0000000000,   0.0000000000,   0.0000000000)
 A2 = (   0.0000000000,  21.0000000000,   0.0000000000)
 A3 = (   0.0000000000,   0.0000000000,  22.0000000000)


Analysis of symmetry for initial positions (statically):
=====================================================================
 Subroutine PRICEL returns:
 Original cell was already a primitive cell.
 

 Routine SETGRP: Setting up the symmetry group for a 
 simple orthorhombic supercell.


 Subroutine GETGRP returns: Found  1 space group operations
 (whereof  1 operations were pure point group operations)
 out of a pool of  8 trial point group operations.


The static configuration has the point symmetry C_1 .


Analysis of symmetry for dynamics (positions and initial velocities):
=====================================================================
 Subroutine PRICEL returns:
 Original cell was already a primitive cell.
 

 Routine SETGRP: Setting up the symmetry group for a 
 simple orthorhombic supercell.


 Subroutine GETGRP returns: Found  1 space group operations
 (whereof  1 operations were pure point group operations)
 out of a pool of  8 trial point group operations.


The dynamic configuration has the point symmetry C_1 .


Analysis of constrained symmetry for selective dynamics:
=====================================================================
 Subroutine PRICEL returns:
 Original cell was already a primitive cell.
 

 Routine SETGRP: Setting up the symmetry group for a 
 simple orthorhombic supercell.


 Subroutine GETGRP returns: Found  1 space group operations
 (whereof  1 operations were pure point group operations)
 out of a pool of  8 trial point group operations.


The constrained configuration has the point symmetry C_1 .


 Subroutine INISYM returns: Found  1 space group operations
 (whereof  1 operations are pure point group operations),
 and found     1 'primitive' translations

 
 
 KPOINTS: K-POINTS                                

Automatic generation of k-mesh.
Space group operators:
 irot       det(A)        alpha          n_x          n_y          n_z        tau_x        tau_y        tau_z
    1     1.000000     0.000001     1.000000     0.000000     0.000000     0.000000     0.000000     0.000000
 
 Subroutine IBZKPT returns following result:
 ===========================================
 
 Found      1 irreducible k-points:
 
 Following reciprocal coordinates:
            Coordinates               Weight
  0.000000  0.000000  0.000000      1.000000
 
 Following cartesian coordinates:
            Coordinates               Weight
  0.000000  0.000000  0.000000      1.000000
 


--------------------------------------------------------------------------------------------------------




 Dimension of arrays:
   k-points           NKPTS =      1   k-points in BZ     NKDIM =      1   number of bands    NBANDS=     48
   number of dos      NEDOS =    301   number of ions     NIONS =     25
   non local maximal  LDIM  =      4   non local SUM 2l+1 LMDIM =      8
   total plane-waves  NPLWV = ******
   max r-space proj   IRMAX =   1265   max aug-charges    IRDMAX=   2237
   dimension x,y,z NGX =   108 NGY =  112 NGZ =  120
   dimension x,y,z NGXF=   216 NGYF=  224 NGZF=  240
   support grid    NGXF=   216 NGYF=  224 NGZF=  240
   ions per type =               2   9   2  12
   NGX,Y,Z   is equivalent  to a cutoff of   8.98,  8.87,  9.07 a.u.
   NGXF,Y,Z  is equivalent  to a cutoff of  17.95, 17.73, 18.14 a.u.

 SYSTEM =  ag-1211-a                               
 POSCAR =  O  C  N  H                              

 Startparameter for this run:
   NWRITE =      0    write-flag & timer
   PREC   = normal    normal or accurate (medium, high low for compatibility)
   ISTART =      0    job   : 0-new  1-cont  2-samecut
   ICHARG =      2    charge: 1-file 2-atom 10-const
   ISPIN  =      1    spin polarized calculation?
   LNONCOLLINEAR =      F non collinear calculations
   LSORBIT =      F    spin-orbit coupling
   INIWAV =      1    electr: 0-lowe 1-rand  2-diag
   LASPH  =      F    aspherical Exc in radial PAW
   METAGGA=      F    non-selfconsistent MetaGGA calc.

 Electronic Relaxation 1
   ENCUT  =  450.0 eV  33.07 Ry    5.75 a.u.  34.59 36.32 38.05*2*pi/ulx,y,z
   ENINI  =  450.0     initial cutoff
   ENAUG  =  644.9 eV  augmentation charge cutoff
   NELM   =     50;   NELMIN=  5; NELMDL= -7     # of ELM steps 
   EDIFF  = 0.1E-04   stopping-criterion for ELM
   LREAL  =      T    real-space projection
   NLSPLINE    = F    spline interpolate recip. space projectors
   LCOMPAT=      F    compatible to vasp.4.4
   GGA_COMPAT  = T    GGA compatible to vasp.4.4-vasp.4.6
   LMAXPAW     = -100 max onsite density
   LMAXMIX     =    2 max onsite mixed and CHGCAR
   VOSKOWN=      0    Vosko Wilk Nusair interpolation
   ROPT   =   -0.00050  -0.00050  -0.00050  -0.00050
 Ionic relaxation
   EDIFFG = -.2E-01   stopping-criterion for IOM
   NSW    =    300    number of steps for IOM
   NBLOCK =      1;   KBLOCK =    300    inner block; outer block 
   IBRION =      2    ionic relax: 0-MD 1-quasi-New 2-CG
   NFREE  =      2    steps in history (QN), initial steepest desc. (CG)
   ISIF   =      2    stress and relaxation
   IWAVPR =     11    prediction:  0-non 1-charg 2-wave 3-comb
   ISYM   =      2    0-nonsym 1-usesym 2-fastsym
   LCORR  =      T    Harris-Foulkes like correction to forces

   POTIM  = 0.1500    time-step for ionic-motion
   TEIN   =    0.0    initial temperature
   TEBEG  =    0.0;   TEEND  =   0.0 temperature during run
   SMASS  =  -3.00    Nose mass-parameter (am)
   estimated Nose-frequenzy (Omega)   =  0.10E-29 period in steps =****** mass=  -0.914E-26a.u.
   SCALEE = 1.0000    scale energy and forces
   NPACO  =    256;   APACO  = 16.0  distance and # of slots for P.C.
   PSTRESS=    0.0 pullay stress

  Mass of Ions in am
   POMASS =  16.00 12.01 14.00  1.00
  Ionic Valenz
   ZVAL   =   6.00  4.00  5.00  1.00
  Atomic Wigner-Seitz radii
   RWIGS  =  -1.00 -1.00 -1.00 -1.00
  virtual crystal weights 
   VCA    =   1.00  1.00  1.00  1.00
   NELECT =      70.0000    total number of electrons
   NUPDOWN=      -1.0000    fix difference up-down

 DOS related values:
   EMIN   =  10.00;   EMAX   =-10.00  energy-range for DOS
   EFERMI =   0.00
   ISMEAR =     0;   SIGMA  =   0.03  broadening in eV -4-tet -1-fermi 0-gaus

 Electronic relaxation 2 (details)
   IALGO  =     68    algorithm
   LDIAG  =      T    sub-space diagonalisation (order eigenvalues)
   LSUBROT=      F    optimize rotation matrix (better conditioning)
   TURBO    =      0    0=normal 1=particle mesh
   IRESTART =      0    0=no restart 2=restart with 2 vectors
   NREBOOT  =      0    no. of reboots
   NMIN     =      0    reboot dimension
   EREF     =   0.00    reference energy to select bands
   IMIX   =      4    mixing-type and parameters
     AMIX     =   0.40;   BMIX     =  1.00
     AMIX_MAG =   1.60;   BMIX_MAG =  1.00
     AMIN     =   0.10
     WC   =   100.;   INIMIX=   1;  MIXPRE=   1;  MAXMIX= -45

 Intra band minimization:
   WEIMIN = 0.0010     energy-eigenvalue tresh-hold
   EBREAK =  0.52E-07  absolut break condition
   DEPER  =   0.30     relativ break condition  

   TIME   =   0.40     timestep for ELM

  volume/ion in A,a.u.               =     369.60      2494.18
  Fermi-wavevector in a.u.,A,eV,Ry     =   0.321527  0.607597  1.406561  0.103379
  Thomas-Fermi vector in A             =   1.209100
 
 Write flags
   LWAVE        =      F    write WAVECAR
   LDOWNSAMPLE  =      F    k-point downsampling of WAVECAR
   LCHARG       =      F    write CHGCAR
   LVTOT        =      F    write LOCPOT, total local potential
   LVHAR        =      F    write LOCPOT, Hartree potential only
   LELF         =      F    write electronic localiz. function (ELF)
   LORBIT       =      0    0 simple, 1 ext, 2 COOP (PROOUT), +10 PAW based schemes


 Dipole corrections
   LMONO  =      F    monopole corrections only (constant potential shift)
   LDIPOL =      F    correct potential (dipole corrections)
   IDIPOL =      0    1-x, 2-y, 3-z, 4-all directions 
   EPSILON=  1.0000000 bulk dielectric constant

 Exchange correlation treatment:
   GGA     =    PE    GGA type
   LEXCH   =     8    internal setting for exchange type
   VOSKOWN=      0    Vosko Wilk Nusair interpolation
   LHFCALC =     F    Hartree Fock is set to
   LHFONE  =     F    Hartree Fock one center treatment
   AEXX    =    0.0000 exact exchange contribution

 Linear response parameters
   LEPSILON=     F    determine dielectric tensor
   LRPA    =     F    only Hartree local field effects (RPA)
   LNABLA  =     F    use nabla operator in PAW spheres
   LVEL    =     F    velocity operator in full k-point grid
   LINTERFAST=   F  fast interpolation
   KINTER  =     0    interpolate to denser k-point grid
   CSHIFT  =0.1000    complex shift for real part using Kramers Kronig
   OMEGAMAX=  -1.0    maximum frequency
   DEG_THRESHOLD= 0.2000000E-02 threshold for treating states as degnerate
   RTIME   =   -0.100 relaxation time in fs
  (WPLASMAI=    0.000 imaginary part of plasma frequency in eV, 0.658/RTIME)
   DFIELD  = 0.0000000 0.0000000 0.0000000 field for delta impulse in time
 
 Orbital magnetization related:
   ORBITALMAG=     F  switch on orbital magnetization
   LCHIMAG   =     F  perturbation theory with respect to B field
   DQ        =  0.001000  dq finite difference perturbation B field
   LLRAUG    =     F  two centre corrections for induced B field



--------------------------------------------------------------------------------------------------------


 conjugate gradient relaxation of ions
   using selective dynamics as specified on POSCAR
 charge density and potential will be updated during run
 non-spin polarized calculation
 RMM-DIIS sequential band-by-band and
  variant of blocked Davidson during initial phase
 perform sub-space diagonalisation
    before iterative eigenvector-optimisation
 modified Broyden-mixing scheme, WC =      100.0
 initial mixing is a Kerker type mixing with AMIX =  0.4000 and BMIX =      1.0000
 Hartree-type preconditioning will be used
 using additional bands           13
 real space projection scheme for non local part
 use partial core corrections
 calculate Harris-corrections to forces 
   (improved forces if not selfconsistent)
 use gradient corrections 
 use of overlap-Matrix (Vanderbilt PP)
 Gauss-broadening in eV      SIGMA  =   0.03


--------------------------------------------------------------------------------------------------------


  energy-cutoff  :      450.00
  volume of cell :     9240.00
      direct lattice vectors                 reciprocal lattice vectors
    20.000000000  0.000000000  0.000000000     0.050000000  0.000000000  0.000000000
     0.000000000 21.000000000  0.000000000     0.000000000  0.047619048  0.000000000
     0.000000000  0.000000000 22.000000000     0.000000000  0.000000000  0.045454545

  length of vectors
    20.000000000 21.000000000 22.000000000     0.050000000  0.047619048  0.045454545


 
 k-points in units of 2pi/SCALE and weight: K-POINTS                                
   0.00000000  0.00000000  0.00000000       1.000
 
 k-points in reciprocal lattice and weights: K-POINTS                                
   0.00000000  0.00000000  0.00000000       1.000
 
 position of ions in fractional coordinates (direct lattice) 
   0.64938281  0.38718078  0.46812138
   0.66239355  0.49475337  0.45221493
   0.43320392  0.51524414  0.43297538
   0.43993794  0.44420963  0.44036361
   0.38361524  0.40476837  0.44089185
   0.38792118  0.33896666  0.44793130
   0.45087730  0.31009901  0.45442183
   0.50842914  0.34844259  0.45400621
   0.50311543  0.41451376  0.44725745
   0.62545793  0.43950499  0.45682234
   0.73258820  0.48687287  0.46488786
   0.55966675  0.45446824  0.44662156
   0.45639412  0.24462357  0.46379406
   0.33439111  0.42663568  0.43569938
   0.34260744  0.30997412  0.44842165
   0.55770587  0.32716924  0.45935745
   0.55106752  0.50141178  0.43915861
   0.41764298  0.21799071  0.44840381
   0.50151252  0.22514948  0.45393183
   0.45348260  0.54168696  0.47222022
   0.38038009  0.52862616  0.42870294
   0.45882478  0.53311668  0.39192746
   0.75570002  0.53258985  0.45350931
   0.74043420  0.47565924  0.51316294
   0.75391156  0.44845280  0.43712275
 
 position of ions in cartesian coordinates  (Angst):
  12.98765626  8.13079648 10.29867037
  13.24787094 10.38982076  9.94872847
   8.66407839 10.82012702  9.52545844
   8.79875881  9.32840230  9.68799950
   7.67230488  8.50013582  9.69962077
   7.75842356  7.11829995  9.85448869
   9.01754603  6.51207927  9.99728036
  10.16858280  7.31729430  9.98813668
  10.06230864  8.70478896  9.83966399
  12.50915869  9.22960482 10.05009137
  14.65176406 10.22433030 10.22753299
  11.19333504  9.54383299  9.82567443
   9.12788237  5.13709504 10.20346925
   6.68782210  8.95934928  9.58538638
   6.85214878  6.50945649  9.86527632
  11.15411733  6.87055413 10.10586397
  11.02135049 10.52964736  9.66148953
   8.35285965  4.57780495  9.86488380
  10.03025050  4.72813904  9.98650016
   9.06965192 11.37542617 10.38884493
   7.60760186 11.10114943  9.43146477
   9.17649567 11.19545029  8.62240412
  15.11400042 11.18438678  9.97720483
  14.80868404  9.98884400 11.28958472
  15.07823121  9.41750870  9.61670045
 


--------------------------------------------------------------------------------------------------------


 k-point  1 :   0.0000 0.0000 0.0000  plane waves:  200221

 maximum and minimum number of plane-waves per node :    200221   200221

 maximum number of plane-waves:    200221
 maximum index in each direction: 
   IXMAX=   34   IYMAX=   36   IZMAX=   38
   IXMIN=  -34   IYMIN=  -36   IZMIN=  -38


 serial   3D FFT for wavefunctions
 parallel 3D FFT for charge:
    minimum data exchange during FFTs selected (reduces bandwidth)


 total amount of memory used by VASP MPI-rank0   212111. kBytes
=======================================================================

   base      :      30000. kBytes
   nonlr-proj:       2222. kBytes
   fftplans  :      38602. kBytes
   grid      :     128386. kBytes
   one-center:         76. kBytes
   wavefun   :      12825. kBytes
 
     INWAV:  cpu time    0.0000: real time    0.0001
 Broyden mixing: mesh for mixing (old mesh)
   NGX = 69   NGY = 73   NGZ = 77
  (NGX  =216   NGY  =224   NGZ  =240)
  gives a total of 387849 points

 initial charge density was supplied:
 charge density of overlapping atoms calculated
 number of electron      70.0000000 magnetization 
 keeping initial charge density in first step


--------------------------------------------------------------------------------------------------------


 Maximum index for non-local projection operator         1191
 Maximum index for augmentation-charges          192 (set IRDMAX)


--------------------------------------------------------------------------------------------------------


 First call to EWALD:  gamma=   0.084
 Maximum number of real-space cells 3x 3x 3
 Maximum number of reciprocal cells 3x 3x 3

    FEWALD:  cpu time    0.0030: real time    0.0025


--------------------------------------- Iteration      1(   1)  ---------------------------------------


    POTLOK:  cpu time    1.7107: real time    1.7162
    SETDIJ:  cpu time    0.0060: real time    0.0060
     EDDAV:  cpu time    4.7703: real time    4.7812
       DOS:  cpu time    0.0000: real time    0.0003
    --------------------------------------------
      LOOP:  cpu time    6.4880: real time    6.5038

 eigenvalue-minimisations  :   120
 total energy-change (2. order) : 0.6500749E+03  (-0.1412792E+04)
 number of electron      70.0000000 magnetization 
 augmentation part       70.0000000 magnetization 

 Free energy of the ion-electron system (eV)
  ---------------------------------------------------
  alpha Z        PSCENC =         2.29909595
  Ewald energy   TEWEN  =      6487.39179848
  -Hartree energ DENC   =     -8530.21360551
  -exchange      EXHF   =         0.00000000
  -V(xc)+E(xc)   XCENC  =       241.11701176
  PAW double counting   =      2105.27116366    -2116.48165886
  entropy T*S    EENTRO =        -0.00000002
  eigenvalues    EBANDS =      -407.14139405
  atomic energy  EATOM  =      2867.83248741
  Solvation  Ediel_sol  =         0.00000000
  ---------------------------------------------------
  free energy    TOTEN  =       650.07489883 eV

  energy without entropy =      650.07489885  energy(sigma->0) =      650.07489884


--------------------------------------------------------------------------------------------------------




--------------------------------------- Iteration      1(   2)  ---------------------------------------


     EDDAV:  cpu time    5.8801: real time    5.8929
       DOS:  cpu time    0.0000: real time    0.0003
    --------------------------------------------
      LOOP:  cpu time    5.8791: real time    5.8931

 eigenvalue-minimisations  :   156
 total energy-change (2. order) :-0.4019083E+03  (-0.3763559E+03)
 number of electron      70.0000000 magnetization 
 augmentation part       70.0000000 magnetization 

 Free energy of the ion-electron system (eV)
  ---------------------------------------------------
  alpha Z        PSCENC =         2.29909595
  Ewald energy   TEWEN  =      6487.39179848
  -Hartree energ DENC   =     -8530.21360551
  -exchange      EXHF   =         0.00000000
  -V(xc)+E(xc)   XCENC  =       241.11701176
  PAW double counting   =      2105.27116366    -2116.48165886
  entropy T*S    EENTRO =        -0.00168676
  eigenvalues    EBANDS =      -809.04798104
  atomic energy  EATOM  =      2867.83248741
  Solvation  Ediel_sol  =         0.00000000
  ---------------------------------------------------
  free energy    TOTEN  =       248.16662509 eV

  energy without entropy =      248.16831186  energy(sigma->0) =      248.16746848


--------------------------------------------------------------------------------------------------------




--------------------------------------- Iteration      1(   3)  ---------------------------------------


     EDDAV:  cpu time    5.5082: real time    5.5194
       DOS:  cpu time    0.0000: real time    0.0002
    --------------------------------------------
      LOOP:  cpu time    5.5082: real time    5.5196

 eigenvalue-minimisations  :   144
 total energy-change (2. order) :-0.3478314E+03  (-0.3363528E+03)
 number of electron      70.0000000 magnetization 
 augmentation part       70.0000000 magnetization 

 Free energy of the ion-electron system (eV)
  ---------------------------------------------------
  alpha Z        PSCENC =         2.29909595
  Ewald energy   TEWEN  =      6487.39179848
  -Hartree energ DENC   =     -8530.21360551
  -exchange      EXHF   =         0.00000000
  -V(xc)+E(xc)   XCENC  =       241.11701176
  PAW double counting   =      2105.27116366    -2116.48165886
  entropy T*S    EENTRO =        -0.00000000
  eigenvalues    EBANDS =     -1156.88110543
  atomic energy  EATOM  =      2867.83248741
  Solvation  Ediel_sol  =         0.00000000
  ---------------------------------------------------
  free energy    TOTEN  =       -99.66481254 eV

  energy without entropy =      -99.66481254  energy(sigma->0) =      -99.66481254


--------------------------------------------------------------------------------------------------------




--------------------------------------- Iteration      1(   4)  ---------------------------------------


     EDDAV:  cpu time    4.7513: real time    4.7613
       DOS:  cpu time    0.0000: real time    0.0002
    --------------------------------------------
      LOOP:  cpu time    4.7513: real time    4.7615

 eigenvalue-minimisations  :   120
 total energy-change (2. order) :-0.6912808E+02  (-0.6871518E+02)
 number of electron      70.0000000 magnetization 
 augmentation part       70.0000000 magnetization 

 Free energy of the ion-electron system (eV)
  ---------------------------------------------------
  alpha Z        PSCENC =         2.29909595
  Ewald energy   TEWEN  =      6487.39179848
  -Hartree energ DENC   =     -8530.21360551
  -exchange      EXHF   =         0.00000000
  -V(xc)+E(xc)   XCENC  =       241.11701176
  PAW double counting   =      2105.27116366    -2116.48165886
  entropy T*S    EENTRO =        -0.00000000
  eigenvalues    EBANDS =     -1226.00918700
  atomic energy  EATOM  =      2867.83248741
  Solvation  Ediel_sol  =         0.00000000
  ---------------------------------------------------
  free energy    TOTEN  =      -168.79289411 eV

  energy without entropy =     -168.79289411  energy(sigma->0) =     -168.79289411


--------------------------------------------------------------------------------------------------------




--------------------------------------- Iteration      1(   5)  ---------------------------------------


     EDDAV:  cpu time    4.3983: real time    4.4080
       DOS:  cpu time    0.0000: real time    0.0002
    --------------------------------------------
      LOOP:  cpu time    4.3983: real time    4.4081

 eigenvalue-minimisations  :   108
 total energy-change (2. order) :-0.2403850E+01  (-0.2340703E+01)
 number of electron      70.0000000 magnetization 
 augmentation part       70.0000000 magnetization 

 Free energy of the ion-electron system (eV)
  ---------------------------------------------------
  alpha Z        PSCENC =         2.29909595
  Ewald energy   TEWEN  =      6487.39179848
  -Hartree energ DENC   =     -8530.21360551
  -exchange      EXHF   =         0.00000000
  -V(xc)+E(xc)   XCENC  =       241.11701176
  PAW double counting   =      2105.27116366    -2116.48165886
  entropy T*S    EENTRO =        -0.00000000
  eigenvalues    EBANDS =     -1228.41303672
  atomic energy  EATOM  =      2867.83248741
  Solvation  Ediel_sol  =         0.00000000
  ---------------------------------------------------
  free energy    TOTEN  =      -171.19674382 eV

  energy without entropy =     -171.19674382  energy(sigma->0) =     -171.19674382


--------------------------------------------------------------------------------------------------------




--------------------------------------- Iteration      1(   6)  ---------------------------------------


     EDDAV:  cpu time    5.1362: real time    5.1507
       DOS:  cpu time    0.0000: real time    0.0002
    --------------------------------------------
      LOOP:  cpu time    5.1362: real time    5.1508

 eigenvalue-minimisations  :   132
 total energy-change (2. order) :-0.8228565E-01  (-0.8207617E-01)
 number of electron      70.0000000 magnetization 
 augmentation part       70.0000000 magnetization 

 Free energy of the ion-electron system (eV)
  ---------------------------------------------------
  alpha Z        PSCENC =         2.29909595
  Ewald energy   TEWEN  =      6487.39179848
  -Hartree energ DENC   =     -8530.21360551
  -exchange      EXHF   =         0.00000000
  -V(xc)+E(xc)   XCENC  =       241.11701176
  PAW double counting   =      2105.27116366    -2116.48165886
  entropy T*S    EENTRO =        -0.00000000
  eigenvalues    EBANDS =     -1228.49532237
  atomic energy  EATOM  =      2867.83248741
  Solvation  Ediel_sol  =         0.00000000
  ---------------------------------------------------
  free energy    TOTEN  =      -171.27902947 eV

  energy without entropy =     -171.27902947  energy(sigma->0) =     -171.27902947


--------------------------------------------------------------------------------------------------------




--------------------------------------- Iteration      1(   7)  ---------------------------------------


     EDDAV:  cpu time    5.5112: real time    5.5226
       DOS:  cpu time    0.0000: real time    0.0002
    CHARGE:  cpu time    0.5059: real time    0.5065
    MIXING:  cpu time    0.0430: real time    0.0435
    --------------------------------------------
      LOOP:  cpu time    6.0601: real time    6.0728

 eigenvalue-minimisations  :   144
 total energy-change (2. order) :-0.1109553E-02  (-0.1108447E-02)
 number of electron      70.0000009 magnetization 
 augmentation part        3.3121301 magnetization 

 Broyden mixing:
  rms(total) = 0.21302E+01    rms(broyden)= 0.21287E+01
  rms(prec ) = 0.22859E+01
  weight for this iteration     100.00

 Free energy of the ion-electron system (eV)
  ---------------------------------------------------
  alpha Z        PSCENC =         2.29909595
  Ewald energy   TEWEN  =      6487.39179848
  -Hartree energ DENC   =     -8530.21360551
  -exchange      EXHF   =         0.00000000
  -V(xc)+E(xc)   XCENC  =       241.11701176
  PAW double counting   =      2105.27116366    -2116.48165886
  entropy T*S    EENTRO =        -0.00000000
  eigenvalues    EBANDS =     -1228.49643192
  atomic energy  EATOM  =      2867.83248741
  Solvation  Ediel_sol  =         0.00000000
  ---------------------------------------------------
  free energy    TOTEN  =      -171.28013902 eV

  energy without entropy =     -171.28013902  energy(sigma->0) =     -171.28013902


--------------------------------------------------------------------------------------------------------




--------------------------------------- Iteration      1(   8)  ---------------------------------------


    POTLOK:  cpu time    1.5828: real time    1.5858
    SETDIJ:  cpu time    0.0060: real time    0.0060
    EDDIAG:  cpu time    0.8169: real time    0.8187
  RMM-DIIS:  cpu time    2.9745: real time    2.9806
    ORTHCH:  cpu time    0.1390: real time    0.1390
       DOS:  cpu time    0.0000: real time    0.0002
    CHARGE:  cpu time    0.4789: real time    0.4802
    MIXING:  cpu time    0.0490: real time    0.0489
    --------------------------------------------
      LOOP:  cpu time    6.0471: real time    6.0595

 eigenvalue-minimisations  :    96
 total energy-change (2. order) : 0.1219571E+02  (-0.2536665E+01)
 number of electron      70.0000005 magnetization 
 augmentation part        3.0237704 magnetization 

 Broyden mixing:
  rms(total) = 0.11112E+01    rms(broyden)= 0.11110E+01
  rms(prec ) = 0.11749E+01
  weight for this iteration     100.00

 eigenvalues of (default mixing * dielectric matrix)
  average eigenvalue GAMMA=   1.3779
  1.3779

 Free energy of the ion-electron system (eV)
  ---------------------------------------------------
  alpha Z        PSCENC =         2.29909595
  Ewald energy   TEWEN  =      6487.39179848
  -Hartree energ DENC   =     -8666.55669936
  -exchange      EXHF   =         0.00000000
  -V(xc)+E(xc)   XCENC  =       247.89723189
  PAW double counting   =      3380.52116942    -3393.37731217
  entropy T*S    EENTRO =        -0.00000000
  eigenvalues    EBANDS =     -1085.09220545
  atomic energy  EATOM  =      2867.83248741
  Solvation  Ediel_sol  =         0.00000000
  ---------------------------------------------------
  free energy    TOTEN  =      -159.08443382 eV

  energy without entropy =     -159.08443382  energy(sigma->0) =     -159.08443382


--------------------------------------------------------------------------------------------------------




--------------------------------------- Iteration      1(   9)  ---------------------------------------


    POTLOK:  cpu time    1.5788: real time    1.5827
    SETDIJ:  cpu time    0.0060: real time    0.0059
    EDDIAG:  cpu time    0.8189: real time    0.8208
  RMM-DIIS:  cpu time    2.9625: real time    2.9691
    ORTHCH:  cpu time    0.1390: real time    0.1384
       DOS:  cpu time    0.0000: real time    0.0004
    CHARGE:  cpu time    0.4769: real time    0.4786
    MIXING:  cpu time    0.0510: real time    0.0509
    --------------------------------------------
      LOOP:  cpu time    6.0331: real time    6.0467

 eigenvalue-minimisations  :    96
 total energy-change (2. order) : 0.2518608E+01  (-0.7651187E+00)
 number of electron      70.0000004 magnetization 
 augmentation part        2.9343528 magnetization 

 Broyden mixing:
  rms(total) = 0.53840E+00    rms(broyden)= 0.53829E+00
  rms(prec ) = 0.56127E+00
  weight for this iteration     100.00

 eigenvalues of (default mixing * dielectric matrix)
  average eigenvalue GAMMA=   1.5981
  1.1659  2.0302

 Free energy of the ion-electron system (eV)
  ---------------------------------------------------
  alpha Z        PSCENC =         2.29909595
  Ewald energy   TEWEN  =      6487.39179848
  -Hartree energ DENC   =     -8756.95727996
  -exchange      EXHF   =         0.00000000
  -V(xc)+E(xc)   XCENC  =       252.17341783
  PAW double counting   =      4775.48912768    -4788.98961272
  entropy T*S    EENTRO =        -0.00000000
  eigenvalues    EBANDS =      -995.80486079
  atomic energy  EATOM  =      2867.83248741
  Solvation  Ediel_sol  =         0.00000000
  ---------------------------------------------------
  free energy    TOTEN  =      -156.56582612 eV

  energy without entropy =     -156.56582612  energy(sigma->0) =     -156.56582612


--------------------------------------------------------------------------------------------------------




--------------------------------------- Iteration      1(  10)  ---------------------------------------


    POTLOK:  cpu time    1.5898: real time    1.5926
    SETDIJ:  cpu time    0.0060: real time    0.0058
    EDDIAG:  cpu time    0.8159: real time    0.8177
  RMM-DIIS:  cpu time    2.9615: real time    2.9683
    ORTHCH:  cpu time    0.1380: real time    0.1385
       DOS:  cpu time    0.0010: real time    0.0003
    CHARGE:  cpu time    0.4789: real time    0.4801
    MIXING:  cpu time    0.0600: real time    0.0604
    --------------------------------------------
      LOOP:  cpu time    6.0511: real time    6.0637

 eigenvalue-minimisations  :    96
 total energy-change (2. order) : 0.4447059E+00  (-0.1361250E+00)
 number of electron      70.0000004 magnetization 
 augmentation part        2.9050416 magnetization 

 Broyden mixing:
  rms(total) = 0.17454E+00    rms(broyden)= 0.17449E+00
  rms(prec ) = 0.18889E+00
  weight for this iteration     100.00

 eigenvalues of (default mixing * dielectric matrix)
  average eigenvalue GAMMA=   1.5721
  2.2847  0.9370  1.4944

 Free energy of the ion-electron system (eV)
  ---------------------------------------------------
  alpha Z        PSCENC =         2.29909595
  Ewald energy   TEWEN  =      6487.39179848
  -Hartree energ DENC   =     -8802.28117966
  -exchange      EXHF   =         0.00000000
  -V(xc)+E(xc)   XCENC  =       254.32207727
  PAW double counting   =      5786.79142417    -5800.37180686
  entropy T*S    EENTRO =        -0.00000000
  eigenvalues    EBANDS =      -952.10501694
  atomic energy  EATOM  =      2867.83248741
  Solvation  Ediel_sol  =         0.00000000
  ---------------------------------------------------
  free energy    TOTEN  =      -156.12112018 eV

  energy without entropy =     -156.12112018  energy(sigma->0) =     -156.12112018


--------------------------------------------------------------------------------------------------------




--------------------------------------- Iteration      1(  11)  ---------------------------------------


    POTLOK:  cpu time    1.5948: real time    1.5988
    SETDIJ:  cpu time    0.0060: real time    0.0062
    EDDIAG:  cpu time    0.8159: real time    0.8178
  RMM-DIIS:  cpu time    3.2115: real time    3.2187
    ORTHCH:  cpu time    0.1380: real time    0.1383
       DOS:  cpu time    0.0010: real time    0.0003
    CHARGE:  cpu time    0.4869: real time    0.4879
    MIXING:  cpu time    0.0550: real time    0.0557
    --------------------------------------------
      LOOP:  cpu time    6.3090: real time    6.3236

 eigenvalue-minimisations  :    99
 total energy-change (2. order) : 0.7409178E-01  (-0.1505023E-01)
 number of electron      70.0000004 magnetization 
 augmentation part        2.9000391 magnetization 

 Broyden mixing:
  rms(total) = 0.55273E-01    rms(broyden)= 0.55253E-01
  rms(prec ) = 0.71781E-01
  weight for this iteration     100.00

 eigenvalues of (default mixing * dielectric matrix)
  average eigenvalue GAMMA=   1.5730
  2.0904  2.0904  0.9298  1.1814

 Free energy of the ion-electron system (eV)
  ---------------------------------------------------
  alpha Z        PSCENC =         2.29909595
  Ewald energy   TEWEN  =      6487.39179848
  -Hartree energ DENC   =     -8815.35736150
  -exchange      EXHF   =         0.00000000
  -V(xc)+E(xc)   XCENC  =       254.75351686
  PAW double counting   =      6060.62578635    -6074.10629002
  entropy T*S    EENTRO =        -0.00000000
  eigenvalues    EBANDS =      -939.48606193
  atomic energy  EATOM  =      2867.83248741
  Solvation  Ediel_sol  =         0.00000000
  ---------------------------------------------------
  free energy    TOTEN  =      -156.04702841 eV

  energy without entropy =     -156.04702841  energy(sigma->0) =     -156.04702841


--------------------------------------------------------------------------------------------------------




--------------------------------------- Iteration      1(  12)  ---------------------------------------


    POTLOK:  cpu time    1.5998: real time    1.6030
    SETDIJ:  cpu time    0.0060: real time    0.0058
    EDDIAG:  cpu time    0.8139: real time    0.8156
  RMM-DIIS:  cpu time    2.9725: real time    2.9789
    ORTHCH:  cpu time    0.1380: real time    0.1380
       DOS:  cpu time    0.0000: real time    0.0008
    CHARGE:  cpu time    0.4879: real time    0.4887
    MIXING:  cpu time    0.0600: real time    0.0596
    --------------------------------------------
      LOOP:  cpu time    6.0781: real time    6.0904

 eigenvalue-minimisations  :    96
 total energy-change (2. order) : 0.1594124E-01  (-0.2383038E-02)
 number of electron      70.0000004 magnetization 
 augmentation part        2.8990695 magnetization 

 Broyden mixing:
  rms(total) = 0.24490E-01    rms(broyden)= 0.24482E-01
  rms(prec ) = 0.41805E-01
  weight for this iteration     100.00

 eigenvalues of (default mixing * dielectric matrix)
  average eigenvalue GAMMA=   1.6371
  2.2674  2.2674  0.9259  1.2298  1.4950

 Free energy of the ion-electron system (eV)
  ---------------------------------------------------
  alpha Z        PSCENC =         2.29909595
  Ewald energy   TEWEN  =      6487.39179848
  -Hartree energ DENC   =     -8822.40218392
  -exchange      EXHF   =         0.00000000
  -V(xc)+E(xc)   XCENC  =       254.81114860
  PAW double counting   =      6064.68558176    -6078.11040858
  entropy T*S    EENTRO =        -0.00000000
  eigenvalues    EBANDS =      -932.53860687
  atomic energy  EATOM  =      2867.83248741
  Solvation  Ediel_sol  =         0.00000000
  ---------------------------------------------------
  free energy    TOTEN  =      -156.03108717 eV

  energy without entropy =     -156.03108717  energy(sigma->0) =     -156.03108717


--------------------------------------------------------------------------------------------------------




--------------------------------------- Iteration      1(  13)  ---------------------------------------


    POTLOK:  cpu time    1.6028: real time    1.6062
    SETDIJ:  cpu time    0.0050: real time    0.0058
    EDDIAG:  cpu time    0.8149: real time    0.8165
  RMM-DIIS:  cpu time    3.0965: real time    3.1028
    ORTHCH:  cpu time    0.1380: real time    0.1384
       DOS:  cpu time    0.0000: real time    0.0003
    CHARGE:  cpu time    0.4789: real time    0.4799
    MIXING:  cpu time    0.0630: real time    0.0626
    --------------------------------------------
      LOOP:  cpu time    6.1991: real time    6.2124

 eigenvalue-minimisations  :    97
 total energy-change (2. order) : 0.6313501E-02  (-0.1117740E-02)
 number of electron      70.0000004 magnetization 
 augmentation part        2.8973999 magnetization 

 Broyden mixing:
  rms(total) = 0.13285E-01    rms(broyden)= 0.13283E-01
  rms(prec ) = 0.26039E-01
  weight for this iteration     100.00

 eigenvalues of (default mixing * dielectric matrix)
  average eigenvalue GAMMA=   1.7400
  2.7385  2.7385  1.5513  0.9546  1.1247  1.3324

 Free energy of the ion-electron system (eV)
  ---------------------------------------------------
  alpha Z        PSCENC =         2.29909595
  Ewald energy   TEWEN  =      6487.39179848
  -Hartree energ DENC   =     -8832.72698244
  -exchange      EXHF   =         0.00000000
  -V(xc)+E(xc)   XCENC  =       254.95670170
  PAW double counting   =      6061.69079488    -6075.10726468
  entropy T*S    EENTRO =        -0.00000000
  eigenvalues    EBANDS =      -922.36140496
  atomic energy  EATOM  =      2867.83248741
  Solvation  Ediel_sol  =         0.00000000
  ---------------------------------------------------
  free energy    TOTEN  =      -156.02477367 eV

  energy without entropy =     -156.02477367  energy(sigma->0) =     -156.02477367


--------------------------------------------------------------------------------------------------------




--------------------------------------- Iteration      1(  14)  ---------------------------------------


    POTLOK:  cpu time    1.6118: real time    1.6159
    SETDIJ:  cpu time    0.0060: real time    0.0061
    EDDIAG:  cpu time    0.8149: real time    0.8166
  RMM-DIIS:  cpu time    2.9665: real time    2.9726
    ORTHCH:  cpu time    0.1380: real time    0.1378
       DOS:  cpu time    0.0000: real time    0.0003
    CHARGE:  cpu time    0.4799: real time    0.4809
    MIXING:  cpu time    0.0670: real time    0.0676
    --------------------------------------------
      LOOP:  cpu time    6.0841: real time    6.0977

 eigenvalue-minimisations  :    96
 total energy-change (2. order) :-0.1383967E-02  (-0.1037257E-02)
 number of electron      70.0000004 magnetization 
 augmentation part        2.8962630 magnetization 

 Broyden mixing:
  rms(total) = 0.84302E-02    rms(broyden)= 0.84259E-02
  rms(prec ) = 0.14401E-01
  weight for this iteration     100.00

 eigenvalues of (default mixing * dielectric matrix)
  average eigenvalue GAMMA=   1.8534
  3.8669  2.3278  1.8158  1.8158  0.9866  0.9866  1.1740

 Free energy of the ion-electron system (eV)
  ---------------------------------------------------
  alpha Z        PSCENC =         2.29909595
  Ewald energy   TEWEN  =      6487.39179848
  -Hartree energ DENC   =     -8843.09934560
  -exchange      EXHF   =         0.00000000
  -V(xc)+E(xc)   XCENC  =       255.06864254
  PAW double counting   =      6041.38383925    -6054.79238531
  entropy T*S    EENTRO =        -0.00000000
  eigenvalues    EBANDS =      -912.11029036
  atomic energy  EATOM  =      2867.83248741
  Solvation  Ediel_sol  =         0.00000000
  ---------------------------------------------------
  free energy    TOTEN  =      -156.02615764 eV

  energy without entropy =     -156.02615764  energy(sigma->0) =     -156.02615764


--------------------------------------------------------------------------------------------------------




--------------------------------------- Iteration      1(  15)  ---------------------------------------


    POTLOK:  cpu time    1.6138: real time    1.6164
    SETDIJ:  cpu time    0.0050: real time    0.0058
    EDDIAG:  cpu time    0.8149: real time    0.8165
  RMM-DIIS:  cpu time    3.0855: real time    3.0923
    ORTHCH:  cpu time    0.1380: real time    0.1381
       DOS:  cpu time    0.0010: real time    0.0003
    CHARGE:  cpu time    0.4759: real time    0.4778
    MIXING:  cpu time    0.0720: real time    0.0717
    --------------------------------------------
      LOOP:  cpu time    6.2061: real time    6.2189

 eigenvalue-minimisations  :    97
 total energy-change (2. order) :-0.7968276E-02  (-0.3990077E-03)
 number of electron      70.0000004 magnetization 
 augmentation part        2.8946765 magnetization 

 Broyden mixing:
  rms(total) = 0.47928E-02    rms(broyden)= 0.47874E-02
  rms(prec ) = 0.81517E-02
  weight for this iteration     100.00

 eigenvalues of (default mixing * dielectric matrix)
  average eigenvalue GAMMA=   2.0095
  5.2314  2.5227  1.9149  0.9537  0.9537  1.6500  1.5840  1.2657

 Free energy of the ion-electron system (eV)
  ---------------------------------------------------
  alpha Z        PSCENC =         2.29909595
  Ewald energy   TEWEN  =      6487.39179848
  -Hartree energ DENC   =     -8848.35690843
  -exchange      EXHF   =         0.00000000
  -V(xc)+E(xc)   XCENC  =       255.12426454
  PAW double counting   =      6040.91371921    -6054.32266730
  entropy T*S    EENTRO =        -0.00000000
  eigenvalues    EBANDS =      -906.91591578
  atomic energy  EATOM  =      2867.83248741
  Solvation  Ediel_sol  =         0.00000000
  ---------------------------------------------------
  free energy    TOTEN  =      -156.03412591 eV

  energy without entropy =     -156.03412591  energy(sigma->0) =     -156.03412591


--------------------------------------------------------------------------------------------------------




--------------------------------------- Iteration      1(  16)  ---------------------------------------


    POTLOK:  cpu time    1.6218: real time    1.6275
    SETDIJ:  cpu time    0.0050: real time    0.0059
    EDDIAG:  cpu time    0.8149: real time    0.8165
  RMM-DIIS:  cpu time    2.9735: real time    2.9791
    ORTHCH:  cpu time    0.1380: real time    0.1380
       DOS:  cpu time    0.0000: real time    0.0010
    CHARGE:  cpu time    0.4769: real time    0.4772
    MIXING:  cpu time    0.0780: real time    0.0780
    --------------------------------------------
      LOOP:  cpu time    6.1081: real time    6.1231

 eigenvalue-minimisations  :    96
 total energy-change (2. order) :-0.9841178E-02  (-0.1639055E-03)
 number of electron      70.0000004 magnetization 
 augmentation part        2.8948779 magnetization 

 Broyden mixing:
  rms(total) = 0.28640E-02    rms(broyden)= 0.28625E-02
  rms(prec ) = 0.46774E-02
  weight for this iteration     100.00

 eigenvalues of (default mixing * dielectric matrix)
  average eigenvalue GAMMA=   2.0489
  5.9299  2.6930  2.0668  2.0668  1.5145  0.9369  0.9369  1.1479  1.1479

 Free energy of the ion-electron system (eV)
  ---------------------------------------------------
  alpha Z        PSCENC =         2.29909595
  Ewald energy   TEWEN  =      6487.39179848
  -Hartree energ DENC   =     -8850.66583526
  -exchange      EXHF   =         0.00000000
  -V(xc)+E(xc)   XCENC  =       255.11660777
  PAW double counting   =      6033.26646099    -6046.67418738
  entropy T*S    EENTRO =        -0.00000000
  eigenvalues    EBANDS =      -904.61039505
  atomic energy  EATOM  =      2867.83248741
  Solvation  Ediel_sol  =         0.00000000
  ---------------------------------------------------
  free energy    TOTEN  =      -156.04396709 eV

  energy without entropy =     -156.04396709  energy(sigma->0) =     -156.04396709


--------------------------------------------------------------------------------------------------------




--------------------------------------- Iteration      1(  17)  ---------------------------------------


    POTLOK:  cpu time    1.6138: real time    1.6179
    SETDIJ:  cpu time    0.0060: real time    0.0059
    EDDIAG:  cpu time    0.8149: real time    0.8164
  RMM-DIIS:  cpu time    3.1035: real time    3.1101
    ORTHCH:  cpu time    0.1430: real time    0.1428
       DOS:  cpu time    0.0000: real time    0.0008
    CHARGE:  cpu time    0.4789: real time    0.4791
    MIXING:  cpu time    0.0850: real time    0.0856
    --------------------------------------------
      LOOP:  cpu time    6.2451: real time    6.2586

 eigenvalue-minimisations  :    94
 total energy-change (2. order) :-0.6209169E-02  (-0.8120763E-04)
 number of electron      70.0000004 magnetization 
 augmentation part        2.8945805 magnetization 

 Broyden mixing:
  rms(total) = 0.16826E-02    rms(broyden)= 0.16819E-02
  rms(prec ) = 0.28501E-02
  weight for this iteration     100.00

 eigenvalues of (default mixing * dielectric matrix)
  average eigenvalue GAMMA=   2.1724
  6.5982  3.3276  2.3291  1.8471  1.8471  1.6748  1.1184  1.1184  0.9317  0.9317

 Free energy of the ion-electron system (eV)
  ---------------------------------------------------
  alpha Z        PSCENC =         2.29909595
  Ewald energy   TEWEN  =      6487.39179848
  -Hartree energ DENC   =     -8851.35879809
  -exchange      EXHF   =         0.00000000
  -V(xc)+E(xc)   XCENC  =       255.10980766
  PAW double counting   =      6036.06377145    -6049.47065550
  entropy T*S    EENTRO =        -0.00000000
  eigenvalues    EBANDS =      -903.91768362
  atomic energy  EATOM  =      2867.83248741
  Solvation  Ediel_sol  =         0.00000000
  ---------------------------------------------------
  free energy    TOTEN  =      -156.05017626 eV

  energy without entropy =     -156.05017626  energy(sigma->0) =     -156.05017626


--------------------------------------------------------------------------------------------------------




--------------------------------------- Iteration      1(  18)  ---------------------------------------


    POTLOK:  cpu time    1.6168: real time    1.6207
    SETDIJ:  cpu time    0.0060: real time    0.0060
    EDDIAG:  cpu time    0.8259: real time    0.8275
  RMM-DIIS:  cpu time    2.9316: real time    2.9370
    ORTHCH:  cpu time    0.1440: real time    0.1448
       DOS:  cpu time    0.0000: real time    0.0003
    CHARGE:  cpu time    0.4819: real time    0.4822
    MIXING:  cpu time    0.0910: real time    0.0915
    --------------------------------------------
      LOOP:  cpu time    6.0971: real time    6.1101

 eigenvalue-minimisations  :    91
 total energy-change (2. order) :-0.4944784E-02  (-0.7343032E-04)
 number of electron      70.0000004 magnetization 
 augmentation part        2.8944364 magnetization 

 Broyden mixing:
  rms(total) = 0.11651E-02    rms(broyden)= 0.11648E-02
  rms(prec ) = 0.16231E-02
  weight for this iteration     100.00

 eigenvalues of (default mixing * dielectric matrix)
  average eigenvalue GAMMA=   2.2355
  7.2023  4.1677  2.3588  2.3588  1.8381  0.9485  0.9485  1.2610  1.2610  1.1231
  1.1231

 Free energy of the ion-electron system (eV)
  ---------------------------------------------------
  alpha Z        PSCENC =         2.29909595
  Ewald energy   TEWEN  =      6487.39179848
  -Hartree energ DENC   =     -8851.67097888
  -exchange      EXHF   =         0.00000000
  -V(xc)+E(xc)   XCENC  =       255.09927561
  PAW double counting   =      6037.32884564    -6050.73595618
  entropy T*S    EENTRO =        -0.00000000
  eigenvalues    EBANDS =      -903.59968907
  atomic energy  EATOM  =      2867.83248741
  Solvation  Ediel_sol  =         0.00000000
  ---------------------------------------------------
  free energy    TOTEN  =      -156.05512104 eV

  energy without entropy =     -156.05512104  energy(sigma->0) =     -156.05512104


--------------------------------------------------------------------------------------------------------




--------------------------------------- Iteration      1(  19)  ---------------------------------------


    POTLOK:  cpu time    1.6208: real time    1.6241
    SETDIJ:  cpu time    0.0060: real time    0.0058
    EDDIAG:  cpu time    0.8229: real time    0.8253
  RMM-DIIS:  cpu time    2.9456: real time    2.9519
    ORTHCH:  cpu time    0.1390: real time    0.1391
       DOS:  cpu time    0.0010: real time    0.0002
    CHARGE:  cpu time    0.4799: real time    0.4813
    MIXING:  cpu time    0.0990: real time    0.0988
    --------------------------------------------
      LOOP:  cpu time    6.1141: real time    6.1267

 eigenvalue-minimisations  :    87
 total energy-change (2. order) :-0.1492836E-02  (-0.2569252E-04)
 number of electron      70.0000004 magnetization 
 augmentation part        2.8944726 magnetization 

 Broyden mixing:
  rms(total) = 0.52102E-03    rms(broyden)= 0.52068E-03
  rms(prec ) = 0.85117E-03
  weight for this iteration     100.00

 eigenvalues of (default mixing * dielectric matrix)
  average eigenvalue GAMMA=   2.3238
  7.8007  4.7284  2.4788  2.4788  1.8902  1.8902  0.9429  0.9429  1.2547  1.2547
  1.1117  1.1117

 Free energy of the ion-electron system (eV)
  ---------------------------------------------------
  alpha Z        PSCENC =         2.29909595
  Ewald energy   TEWEN  =      6487.39179848
  -Hartree energ DENC   =     -8851.75928352
  -exchange      EXHF   =         0.00000000
  -V(xc)+E(xc)   XCENC  =       255.09442457
  PAW double counting   =      6037.03047038    -6050.43716902
  entropy T*S    EENTRO =        -0.00000000
  eigenvalues    EBANDS =      -903.50843813
  atomic energy  EATOM  =      2867.83248741
  Solvation  Ediel_sol  =         0.00000000
  ---------------------------------------------------
  free energy    TOTEN  =      -156.05661388 eV

  energy without entropy =     -156.05661388  energy(sigma->0) =     -156.05661388


--------------------------------------------------------------------------------------------------------




--------------------------------------- Iteration      1(  20)  ---------------------------------------


    POTLOK:  cpu time    1.6098: real time    1.6136
    SETDIJ:  cpu time    0.0060: real time    0.0060
    EDDIAG:  cpu time    0.8229: real time    0.8250
  RMM-DIIS:  cpu time    2.8166: real time    2.8218
    ORTHCH:  cpu time    0.1470: real time    0.1473
       DOS:  cpu time    0.0000: real time    0.0006
    CHARGE:  cpu time    0.4819: real time    0.4822
    MIXING:  cpu time    0.1050: real time    0.1058
    --------------------------------------------
      LOOP:  cpu time    5.9891: real time    6.0022

 eigenvalue-minimisations  :    83
 total energy-change (2. order) :-0.9175784E-03  (-0.8538039E-05)
 number of electron      70.0000004 magnetization 
 augmentation part        2.8944723 magnetization 

 Broyden mixing:
  rms(total) = 0.29953E-03    rms(broyden)= 0.29932E-03
  rms(prec ) = 0.45487E-03
  weight for this iteration     100.00

 eigenvalues of (default mixing * dielectric matrix)
  average eigenvalue GAMMA=   2.3223
  7.9836  5.2975  2.9052  2.3917  1.9485  1.9485  1.2963  1.2963  1.1798  0.9454
  0.9454  1.0256  1.0256

 Free energy of the ion-electron system (eV)
  ---------------------------------------------------
  alpha Z        PSCENC =         2.29909595
  Ewald energy   TEWEN  =      6487.39179848
  -Hartree energ DENC   =     -8851.77087530
  -exchange      EXHF   =         0.00000000
  -V(xc)+E(xc)   XCENC  =       255.09202270
  PAW double counting   =      6036.60033808    -6050.00695898
  entropy T*S    EENTRO =        -0.00000000
  eigenvalues    EBANDS =      -903.49543979
  atomic energy  EATOM  =      2867.83248741
  Solvation  Ediel_sol  =         0.00000000
  ---------------------------------------------------
  free energy    TOTEN  =      -156.05753146 eV

  energy without entropy =     -156.05753146  energy(sigma->0) =     -156.05753146


--------------------------------------------------------------------------------------------------------




--------------------------------------- Iteration      1(  21)  ---------------------------------------


    POTLOK:  cpu time    1.6108: real time    1.6147
    SETDIJ:  cpu time    0.0050: real time    0.0058
    EDDIAG:  cpu time    0.8249: real time    0.8263
  RMM-DIIS:  cpu time    2.1767: real time    2.1808
    ORTHCH:  cpu time    0.1390: real time    0.1391
       DOS:  cpu time    0.0000: real time    0.0003
    CHARGE:  cpu time    0.4799: real time    0.4815
    MIXING:  cpu time    0.1130: real time    0.1127
    --------------------------------------------
      LOOP:  cpu time    5.3492: real time    5.3612

 eigenvalue-minimisations  :    64
 total energy-change (2. order) :-0.2076361E-03  (-0.1149743E-05)
 number of electron      70.0000004 magnetization 
 augmentation part        2.8944595 magnetization 

 Broyden mixing:
  rms(total) = 0.17809E-03    rms(broyden)= 0.17800E-03
  rms(prec ) = 0.29117E-03
  weight for this iteration     100.00

 eigenvalues of (default mixing * dielectric matrix)
  average eigenvalue GAMMA=   2.3922
  8.1350  5.8498  3.2589  2.5868  2.1310  1.9749  1.9749  1.2679  1.2679  0.9555
  0.9555  1.0939  1.0939  0.9443

 Free energy of the ion-electron system (eV)
  ---------------------------------------------------
  alpha Z        PSCENC =         2.29909595
  Ewald energy   TEWEN  =      6487.39179848
  -Hartree energ DENC   =     -8851.82204511
  -exchange      EXHF   =         0.00000000
  -V(xc)+E(xc)   XCENC  =       255.09244642
  PAW double counting   =      6036.49735624    -6049.90405663
  entropy T*S    EENTRO =        -0.00000000
  eigenvalues    EBANDS =      -903.44482186
  atomic energy  EATOM  =      2867.83248741
  Solvation  Ediel_sol  =         0.00000000
  ---------------------------------------------------
  free energy    TOTEN  =      -156.05773909 eV

  energy without entropy =     -156.05773909  energy(sigma->0) =     -156.05773909


--------------------------------------------------------------------------------------------------------




--------------------------------------- Iteration      1(  22)  ---------------------------------------


    POTLOK:  cpu time    1.6108: real time    1.6144
    SETDIJ:  cpu time    0.0060: real time    0.0058
    EDDIAG:  cpu time    0.8169: real time    0.8189
  RMM-DIIS:  cpu time    2.0457: real time    2.0499
    ORTHCH:  cpu time    0.1380: real time    0.1381
       DOS:  cpu time    0.0000: real time    0.0004
    CHARGE:  cpu time    0.4809: real time    0.4819
    MIXING:  cpu time    0.1220: real time    0.1219
    --------------------------------------------
      LOOP:  cpu time    5.2202: real time    5.2313

 eigenvalue-minimisations  :    55
 total energy-change (2. order) :-0.2106137E-03  (-0.9608828E-06)
 number of electron      70.0000004 magnetization 
 augmentation part        2.8944424 magnetization 

 Broyden mixing:
  rms(total) = 0.13175E-03    rms(broyden)= 0.13170E-03
  rms(prec ) = 0.17262E-03
  weight for this iteration     100.00

 eigenvalues of (default mixing * dielectric matrix)
  average eigenvalue GAMMA=   2.3860
  8.4958  5.9826  3.7959  2.5511  2.1799  2.1799  1.7120  1.3358  1.3358  1.2326
  0.9475  0.9475  0.9651  1.0641  1.0641

 Free energy of the ion-electron system (eV)
  ---------------------------------------------------
  alpha Z        PSCENC =         2.29909595
  Ewald energy   TEWEN  =      6487.39179848
  -Hartree energ DENC   =     -8851.86470783
  -exchange      EXHF   =         0.00000000
  -V(xc)+E(xc)   XCENC  =       255.09251518
  PAW double counting   =      6036.37849614    -6049.78529954
  entropy T*S    EENTRO =        -0.00000000
  eigenvalues    EBANDS =      -903.40233550
  atomic energy  EATOM  =      2867.83248741
  Solvation  Ediel_sol  =         0.00000000
  ---------------------------------------------------
  free energy    TOTEN  =      -156.05794971 eV

  energy without entropy =     -156.05794971  energy(sigma->0) =     -156.05794971


--------------------------------------------------------------------------------------------------------




--------------------------------------- Iteration      1(  23)  ---------------------------------------


    POTLOK:  cpu time    1.6148: real time    1.6186
    SETDIJ:  cpu time    0.0060: real time    0.0058
    EDDIAG:  cpu time    0.8139: real time    0.8163
  RMM-DIIS:  cpu time    1.8627: real time    1.8662
    ORTHCH:  cpu time    0.1390: real time    0.1390
       DOS:  cpu time    0.0000: real time    0.0002
    CHARGE:  cpu time    0.4799: real time    0.4808
    MIXING:  cpu time    0.1290: real time    0.1298
    --------------------------------------------
      LOOP:  cpu time    5.0452: real time    5.0568

 eigenvalue-minimisations  :    44
 total energy-change (2. order) :-0.4381343E-04  (-0.2623690E-06)
 number of electron      70.0000004 magnetization 
 augmentation part        2.8944422 magnetization 

 Broyden mixing:
  rms(total) = 0.56349E-04    rms(broyden)= 0.56297E-04
  rms(prec ) = 0.89429E-04
  weight for this iteration     100.00

 eigenvalues of (default mixing * dielectric matrix)
  average eigenvalue GAMMA=   2.4369
  8.6423  6.5832  4.1605  2.8050  2.2909  2.2909  1.7176  1.7176  1.3286  1.3286
  1.0876  1.0876  1.0816  0.9453  0.9453  0.9781

 Free energy of the ion-electron system (eV)
  ---------------------------------------------------
  alpha Z        PSCENC =         2.29909595
  Ewald energy   TEWEN  =      6487.39179848
  -Hartree energ DENC   =     -8851.86836412
  -exchange      EXHF   =         0.00000000
  -V(xc)+E(xc)   XCENC  =       255.09235526
  PAW double counting   =      6036.43966410    -6049.84633441
  entropy T*S    EENTRO =        -0.00000000
  eigenvalues    EBANDS =      -903.39869619
  atomic energy  EATOM  =      2867.83248741
  Solvation  Ediel_sol  =         0.00000000
  ---------------------------------------------------
  free energy    TOTEN  =      -156.05799352 eV

  energy without entropy =     -156.05799352  energy(sigma->0) =     -156.05799352


--------------------------------------------------------------------------------------------------------




--------------------------------------- Iteration      1(  24)  ---------------------------------------


    POTLOK:  cpu time    1.6178: real time    1.6207
    SETDIJ:  cpu time    0.0060: real time    0.0058
    EDDIAG:  cpu time    0.8139: real time    0.8164
  RMM-DIIS:  cpu time    1.7427: real time    1.7465
    ORTHCH:  cpu time    0.1380: real time    0.1382
       DOS:  cpu time    0.0010: real time    0.0005
    CHARGE:  cpu time    0.4789: real time    0.4799
    MIXING:  cpu time    0.1350: real time    0.1353
    --------------------------------------------
      LOOP:  cpu time    4.9332: real time    4.9434

 eigenvalue-minimisations  :    42
 total energy-change (2. order) :-0.3621125E-04  (-0.1326415E-06)
 number of electron      70.0000004 magnetization 
 augmentation part        2.8944465 magnetization 

 Broyden mixing:
  rms(total) = 0.39725E-04    rms(broyden)= 0.39696E-04
  rms(prec ) = 0.53737E-04
  weight for this iteration     100.00

 eigenvalues of (default mixing * dielectric matrix)
  average eigenvalue GAMMA=   2.4409
  8.8074  6.7803  4.5229  2.9036  2.4430  2.1313  2.1313  1.5296  1.5296  1.3340
  1.3340  1.1114  1.1114  0.9527  0.9527  0.9597  0.9597

 Free energy of the ion-electron system (eV)
  ---------------------------------------------------
  alpha Z        PSCENC =         2.29909595
  Ewald energy   TEWEN  =      6487.39179848
  -Hartree energ DENC   =     -8851.86922126
  -exchange      EXHF   =         0.00000000
  -V(xc)+E(xc)   XCENC  =       255.09216155
  PAW double counting   =      6036.50126234    -6049.90789464
  entropy T*S    EENTRO =        -0.00000000
  eigenvalues    EBANDS =      -903.39771956
  atomic energy  EATOM  =      2867.83248741
  Solvation  Ediel_sol  =         0.00000000
  ---------------------------------------------------
  free energy    TOTEN  =      -156.05802973 eV

  energy without entropy =     -156.05802973  energy(sigma->0) =     -156.05802973


--------------------------------------------------------------------------------------------------------




--------------------------------------- Iteration      1(  25)  ---------------------------------------


    POTLOK:  cpu time    1.6198: real time    1.6236
    SETDIJ:  cpu time    0.0060: real time    0.0059
    EDDIAG:  cpu time    0.8179: real time    0.8192
  RMM-DIIS:  cpu time    1.6507: real time    1.6540
    ORTHCH:  cpu time    0.1430: real time    0.1442
       DOS:  cpu time    0.0010: real time    0.0010
    CHARGE:  cpu time    0.4799: real time    0.4809
    MIXING:  cpu time    0.1460: real time    0.1459
    --------------------------------------------
      LOOP:  cpu time    4.8643: real time    4.8746

 eigenvalue-minimisations  :    31
 total energy-change (2. order) :-0.1150381E-04  (-0.3393609E-07)
 number of electron      70.0000004 magnetization 
 augmentation part        2.8944448 magnetization 

 Broyden mixing:
  rms(total) = 0.17696E-04    rms(broyden)= 0.17685E-04
  rms(prec ) = 0.27885E-04
  weight for this iteration     100.00

 eigenvalues of (default mixing * dielectric matrix)
  average eigenvalue GAMMA=   2.4775
  8.8074  7.2346  4.8623  3.4899  2.6184  2.2038  2.2038  1.6574  1.4167  1.4167
  1.4271  1.2292  1.1032  1.1032  0.9507  0.9507  0.9892  0.9316

 Free energy of the ion-electron system (eV)
  ---------------------------------------------------
  alpha Z        PSCENC =         2.29909595
  Ewald energy   TEWEN  =      6487.39179848
  -Hartree energ DENC   =     -8851.87631092
  -exchange      EXHF   =         0.00000000
  -V(xc)+E(xc)   XCENC  =       255.09228432
  PAW double counting   =      6036.49172039    -6049.89840648
  entropy T*S    EENTRO =        -0.00000000
  eigenvalues    EBANDS =      -903.39071040
  atomic energy  EATOM  =      2867.83248741
  Solvation  Ediel_sol  =         0.00000000
  ---------------------------------------------------
  free energy    TOTEN  =      -156.05804124 eV

  energy without entropy =     -156.05804124  energy(sigma->0) =     -156.05804124


--------------------------------------------------------------------------------------------------------




--------------------------------------- Iteration      1(  26)  ---------------------------------------


    POTLOK:  cpu time    1.6288: real time    1.6327
    SETDIJ:  cpu time    0.0070: real time    0.0062
    EDDIAG:  cpu time    0.8209: real time    0.8233
  RMM-DIIS:  cpu time    1.6507: real time    1.6535
    ORTHCH:  cpu time    0.1380: real time    0.1382
       DOS:  cpu time    0.0000: real time    0.0002
    --------------------------------------------
      LOOP:  cpu time    4.2454: real time    4.2542

 eigenvalue-minimisations  :    32
 total energy-change (2. order) :-0.7119702E-05  (-0.2472690E-07)
 number of electron      70.0000004 magnetization 
 augmentation part        2.8944448 magnetization 

 Free energy of the ion-electron system (eV)
  ---------------------------------------------------
  alpha Z        PSCENC =         2.29909595
  Ewald energy   TEWEN  =      6487.39179848
  -Hartree energ DENC   =     -8851.87726944
  -exchange      EXHF   =         0.00000000
  -V(xc)+E(xc)   XCENC  =       255.09227550
  PAW double counting   =      6036.49977655    -6049.90646276
  entropy T*S    EENTRO =        -0.00000000
  eigenvalues    EBANDS =      -903.38975004
  atomic energy  EATOM  =      2867.83248741
  Solvation  Ediel_sol  =         0.00000000
  ---------------------------------------------------
  free energy    TOTEN  =      -156.05804835 eV

  energy without entropy =     -156.05804835  energy(sigma->0) =     -156.05804835


--------------------------------------------------------------------------------------------------------




 average (electrostatic) potential at core
  the test charge radii are     0.7215  0.6991  0.7089  0.5201
  (the norm of the test charge is              1.0000)
       1 -79.7860       2 -81.4894       3 -58.5688       4 -58.5847       5 -58.4620
       6 -58.2707       7 -59.4447       8 -58.2543       9 -59.6707      10 -62.1249
      11 -59.7307      12 -74.6276      13 -73.5037      14 -41.8455      15 -41.8700
      16 -41.6428      17 -44.4835      18 -43.8253      19 -43.7872      20 -41.9043
      21 -41.9054      22 -41.9210      23 -42.2537      24 -42.0638      25 -42.0244
 
 
 
 E-fermi :  -4.4909     XC(G=0):  -0.3681     alpha+bet : -0.1685


 k-point     1 :       0.0000    0.0000    0.0000
  band No.  band energies     occupation 
      1     -27.5600      2.00000
      2     -25.2304      2.00000
      3     -23.6081      2.00000
      4     -22.7087      2.00000
      5     -20.6226      2.00000
      6     -18.7050      2.00000
      7     -18.5052      2.00000
      8     -17.4611      2.00000
      9     -16.5870      2.00000
     10     -15.5750      2.00000
     11     -14.5640      2.00000
     12     -14.1009      2.00000
     13     -13.4379      2.00000
     14     -12.8974      2.00000
     15     -12.3195      2.00000
     16     -11.7199      2.00000
     17     -11.6256      2.00000
     18     -11.0001      2.00000
     19     -10.8320      2.00000
     20     -10.4568      2.00000
     21     -10.4429      2.00000
     22     -10.2483      2.00000
     23      -9.9253      2.00000
     24      -9.8451      2.00000
     25      -9.2779      2.00000
     26      -9.0645      2.00000
     27      -8.6091      2.00000
     28      -8.5193      2.00000
     29      -8.1573      2.00000
     30      -7.9106      2.00000
     31      -7.0481      2.00000
     32      -6.8164      2.00000
     33      -6.3427      2.00000
     34      -5.3354      2.00000
     35      -4.6348      2.00000
     36      -1.0393      0.00000
     37      -0.6361      0.00000
     38      -0.5499      0.00000
     39      -0.3756      0.00000
     40      -0.1584      0.00000
     41      -0.0081      0.00000
     42       0.1960      0.00000
     43       0.2364      0.00000
     44       0.2858      0.00000
     45       0.4181      0.00000
     46       0.4398      0.00000
     47       0.6243      0.00000
     48       0.7023      0.00000


--------------------------------------------------------------------------------------------------------


 soft charge-density along one line, spin component           1
         0         1         2         3         4         5         6         7         8         9
 total charge-density along one line
 
 pseudopotential strength for first ion, spin component:           1
 13.671 -16.751  -0.123   0.028   0.053   0.155  -0.035  -0.067
-16.751  20.554   0.157  -0.036  -0.068  -0.198   0.045   0.086
 -0.123   0.157 -10.395   0.027   0.076  12.859  -0.036  -0.101
  0.028  -0.036   0.027 -10.299  -0.008  -0.036  12.732   0.010
  0.053  -0.068   0.076  -0.008 -10.256  -0.101   0.010  12.673
  0.155  -0.198  12.859  -0.036  -0.101 -15.830   0.048   0.137
 -0.035   0.045  -0.036  12.732   0.010   0.048 -15.661  -0.013
 -0.067   0.086  -0.101   0.010  12.673   0.137  -0.013 -15.579
 total augmentation occupancy for first ion, spin component:           1
  2.815   0.485   0.532  -0.122  -0.233   0.228  -0.052  -0.100
  0.485   0.163   0.465  -0.106  -0.202   0.117  -0.027  -0.051
  0.532   0.465   2.569  -0.132  -0.172   0.474  -0.062  -0.125
 -0.122  -0.106  -0.132   1.947   0.073  -0.062   0.219   0.026
 -0.233  -0.202  -0.172   0.073   2.235  -0.125   0.026   0.240
  0.228   0.117   0.474  -0.062  -0.125   0.103  -0.017  -0.034
 -0.052  -0.027  -0.062   0.219   0.026  -0.017   0.031   0.007
 -0.100  -0.051  -0.125   0.026   0.240  -0.034   0.007   0.038


------------------------ aborting loop because EDIFF is reached ----------------------------------------


    CHARGE:  cpu time    0.4789: real time    0.4805
    FORLOC:  cpu time    0.2480: real time    0.2488
    FORNL :  cpu time    0.9389: real time    0.9407
    STRESS:  cpu time    2.8336: real time    2.8398
    FORCOR:  cpu time    1.7457: real time    1.7492
    FORHAR:  cpu time    0.6059: real time    0.6069
    MIXING:  cpu time    0.1510: real time    0.1508
    OFIELD:  cpu time    0.0000: real time    0.0001

  DFT-D2 method for vdW energy calculation
  -------------------------------------------------------------------

  Parameters of vdW forcefield:
         C6(Jnm^6/mol)     R0(A)
   -----------------------------
   O        0.700          1.342
   C        1.750          1.452
   N        1.230          1.397
   H        0.140          1.001

  IVDW =   1
  VDW_RADIUS =    40.000 A
  VDW_S6 =     0.750
  VDW_SR =     1.000
  VDW_D =    20.000
  LVDW_EWALD = F

  Number of pair interactions contributing to vdW energy:    9061
  Edisp (eV):   -0.51628
    FORVDW:  cpu time    0.0200: real time    0.0206

  FORCE on cell =-STRESS in cart. coord.  units (eV):
  Direction    XX          YY          ZZ          XY          YZ          ZX
  --------------------------------------------------------------------------------------
  Alpha Z     2.29910     2.29910     2.29910
  Ewald    4598.13388  3395.07989 -1505.82438   684.53434  -433.54430   447.97017
  Hartree  4922.15897  3745.53937   184.17977   616.25065  -294.34594   322.78545
  E(xc)    -273.37222  -273.27601  -279.22045     0.11014    -0.67466     0.54027
  Local  -10213.00604 -7832.85397   490.40894 -1303.19652   714.12053  -756.94062
  n-local  -142.30231  -144.77608  -146.25377     1.30773     0.45305     0.40021
  augment    12.65049    12.42975    15.31308     0.08980     0.31599    -0.37377
  Kinetic  1092.26907  1094.34695  1237.71542     0.79657    13.64378   -14.34435
  Fock        0.00000     0.00000     0.00000     0.00000     0.00000     0.00000
  vdW         0.07260    -0.03538     0.08679    -0.02350    -0.00542    -0.00878
  -------------------------------------------------------------------------------------
  Total      -1.09646    -1.24637    -1.29551    -0.13080    -0.03699     0.02860
  in kB      -0.19012    -0.21612    -0.22464    -0.02268    -0.00641     0.00496
  external pressure =       -0.21 kB  Pullay stress =        0.00 kB


 VOLUME and BASIS-vectors are now :
 -----------------------------------------------------------------------------
  energy-cutoff  :      450.00
  volume of cell :     9240.00
      direct lattice vectors                 reciprocal lattice vectors
    20.000000000  0.000000000  0.000000000     0.050000000  0.000000000  0.000000000
     0.000000000 21.000000000  0.000000000     0.000000000  0.047619048  0.000000000
     0.000000000  0.000000000 22.000000000     0.000000000  0.000000000  0.045454545

  length of vectors
    20.000000000 21.000000000 22.000000000     0.050000000  0.047619048  0.045454545


 FORCES acting on ions
    electron-ion (+dipol)            ewald-force                    non-local-force                 convergence-correction
 -----------------------------------------------------------------------------------------------
   -.251E+03 0.342E+03 -.911E+02   0.273E+03 -.392E+03 0.102E+03   -.216E+02 0.499E+02 -.114E+02   0.660E-04 -.995E-05 -.181E-04
   -.115E+03 -.318E+03 0.489E+02   0.101E+03 0.357E+03 -.590E+02   0.137E+02 -.387E+02 0.101E+02   -.219E-04 -.532E-05 -.225E-04
[...]
  -------------------------------------------------------------------------------------
  Total      -1.29345    -1.25662    -1.36309    -0.01667    -0.01696     0.01599
  in kB      -0.22428    -0.21789    -0.23635    -0.00289    -0.00294     0.00277
  external pressure =       -0.23 kB  Pullay stress =        0.00 kB



--------------------------------------------------------------------------------------------------------



  FREE ENERGIE OF THE ION-ELECTRON SYSTEM (eV)
  ---------------------------------------------------
  free  energy   TOTEN  =      -156.57539872 eV

  energy  without entropy=     -156.57539872  energy(sigma->0) =     -156.57539872
 
 d Force = 0.8329721E-04[ 0.610E-04, 0.106E-03]  d Energy = 0.8479478E-04-0.150E-05
 d Force =-0.9632084E+00[-0.963E+00,-0.963E+00]  d Ewald  =-0.9632084E+00 0.840E-08


--------------------------------------------------------------------------------------------------------


    POTLOK:  cpu time    1.6228: real time    1.6269


--------------------------------------------------------------------------------------------------------


 Conjugate gradient step on ions:
 trial-energy change:   -0.000085  1 .order   -0.000083   -0.000106   -0.000061
  (g-gl).g = 0.115E-03      g.g   = 0.114E-03  gl.gl    = 0.108E-03
 g(Force)  = 0.114E-03   g(Stress)= 0.000E+00 ortho     =-0.324E-06
 gamma     =   1.06893
 trial     =   0.92786
 opt step  =   2.19545  (harmonic =   2.19545) maximal distance =0.00156691
 next E    =  -156.575439   (d E  =  -0.00012)


--------------------------------------------------------------------------------------------------------


    WAVPRE:  cpu time    0.6989: real time    0.7025
    FEWALD:  cpu time    0.0020: real time    0.0018
    ORTHCH:  cpu time    0.4479: real time    0.4488
     LOOP+:  cpu time   37.3243: real time   37.4190


--------------------------------------- Iteration     13(   1)  ---------------------------------------


    POTLOK:  cpu time    1.6448: real time    1.6503
    SETDIJ:  cpu time    0.0060: real time    0.0058
     EDDAV:  cpu time    4.3893: real time    4.3992
       DOS:  cpu time    0.0000: real time    0.0002
    CHARGE:  cpu time    0.4889: real time    0.4899
    MIXING:  cpu time    0.0490: real time    0.0498
    --------------------------------------------
      LOOP:  cpu time    6.5780: real time    6.5953

 eigenvalue-minimisations  :   108
 total energy-change (2. order) : 0.5033052E-04  (-0.1458818E-02)
 number of electron      70.0000006 magnetization 
 augmentation part        2.8939763 magnetization 

  free energy =  -0.156057637488E+03  energy without entropy=  -0.156057637488E+03


--------------------------------------------------------------------------------------------------------




--------------------------------------- Iteration     13(   2)  ---------------------------------------


    POTLOK:  cpu time    1.6428: real time    1.6459
    SETDIJ:  cpu time    0.0060: real time    0.0061
    EDDIAG:  cpu time    0.8139: real time    0.8164
  RMM-DIIS:  cpu time    2.9865: real time    2.9933
    ORTHCH:  cpu time    0.1380: real time    0.1387
       DOS:  cpu time    0.0000: real time    0.0004
    CHARGE:  cpu time    0.4779: real time    0.4782
    MIXING:  cpu time    0.0530: real time    0.0534
    --------------------------------------------
      LOOP:  cpu time    6.1181: real time    6.1323

 eigenvalue-minimisations  :    96
 total energy-change (2. order) :-0.1334149E-04  (-0.2543343E-04)
 number of electron      70.0000006 magnetization 
 augmentation part        2.8940344 magnetization 

 eigenvalues of (default mixing * dielectric matrix)
  average eigenvalue GAMMA=   1.1470
  1.1470

  free energy =  -0.156057650829E+03  energy without entropy=  -0.156057650829E+03


--------------------------------------------------------------------------------------------------------




--------------------------------------- Iteration     13(   3)  ---------------------------------------


    POTLOK:  cpu time    1.6318: real time    1.6361
    SETDIJ:  cpu time    0.0060: real time    0.0058
    EDDIAG:  cpu time    0.8149: real time    0.8170
  RMM-DIIS:  cpu time    2.0447: real time    2.0493
    ORTHCH:  cpu time    0.1390: real time    0.1388
       DOS:  cpu time    0.0000: real time    0.0002
    CHARGE:  cpu time    0.4779: real time    0.4792
    MIXING:  cpu time    0.0500: real time    0.0499
    --------------------------------------------
      LOOP:  cpu time    5.1642: real time    5.1763

 eigenvalue-minimisations  :    61
 total energy-change (2. order) : 0.7072613E-06  (-0.1092267E-05)
 number of electron      70.0000006 magnetization 
 augmentation part        2.8940502 magnetization 

 eigenvalues of (default mixing * dielectric matrix)
  average eigenvalue GAMMA=   1.6784
  0.9773  2.3796

  free energy =  -0.156057650122E+03  energy without entropy=  -0.156057650122E+03


--------------------------------------------------------------------------------------------------------




--------------------------------------- Iteration     13(   4)  ---------------------------------------


    POTLOK:  cpu time    1.6308: real time    1.6349
    SETDIJ:  cpu time    0.0060: real time    0.0059
    EDDIAG:  cpu time    0.8159: real time    0.8179
  RMM-DIIS:  cpu time    1.9607: real time    1.9656
    ORTHCH:  cpu time    0.1380: real time    0.1387
       DOS:  cpu time    0.0010: real time    0.0005
    CHARGE:  cpu time    0.4789: real time    0.4802
    MIXING:  cpu time    0.0520: real time    0.0519
    --------------------------------------------
      LOOP:  cpu time    5.0832: real time    5.0956

 eigenvalue-minimisations  :    60
 total energy-change (2. order) :-0.1274204E-05  (-0.8167686E-06)
 number of electron      70.0000006 magnetization 
 augmentation part        2.8940431 magnetization 

 eigenvalues of (default mixing * dielectric matrix)
  average eigenvalue GAMMA=   1.5562
  2.2691  1.0987  1.3008

  free energy =  -0.156057651396E+03  energy without entropy=  -0.156057651396E+03


--------------------------------------------------------------------------------------------------------




--------------------------------------- Iteration     13(   5)  ---------------------------------------


    POTLOK:  cpu time    1.6308: real time    1.6362
    SETDIJ:  cpu time    0.0060: real time    0.0058
    EDDIAG:  cpu time    0.8159: real time    0.8186
  RMM-DIIS:  cpu time    1.9847: real time    1.9890
    ORTHCH:  cpu time    0.1380: real time    0.1383
       DOS:  cpu time    0.0010: real time    0.0005
    --------------------------------------------
      LOOP:  cpu time    4.5763: real time    4.5885

 eigenvalue-minimisations  :    60
 total energy-change (2. order) :-0.3728928E-07  (-0.1386840E-06)
 number of electron      70.0000006 magnetization 
 augmentation part        2.8940431 magnetization 

  free energy =  -0.156057651434E+03  energy without entropy=  -0.156057651434E+03


--------------------------------------------------------------------------------------------------------




------------------------ aborting loop because EDIFF is reached ----------------------------------------


    CHARGE:  cpu time    0.4779: real time    0.4797
    FORLOC:  cpu time    0.2490: real time    0.2493
    FORNL :  cpu time    0.9489: real time    0.9508
    STRESS:  cpu time    2.8686: real time    2.8759
    FORCOR:  cpu time    1.7347: real time    1.7386
    FORHAR:  cpu time    0.6079: real time    0.6099
    MIXING:  cpu time    0.0480: real time    0.0480
    OFIELD:  cpu time    0.0000: real time    0.0000

  Number of pair interactions contributing to vdW energy:    9059
  Edisp (eV):   -0.51779
    FORVDW:  cpu time    0.0030: real time    0.0022

  FORCE on cell =-STRESS in cart. coord.  units (eV):
  Direction    XX          YY          ZZ          XY          YZ          ZX
  --------------------------------------------------------------------------------------
  Alpha Z     2.29910     2.29910     2.29910
  Ewald    4601.63097  3394.69363 -1505.90069   684.75359  -433.69520   449.19495
  Hartree  4924.75056  3745.43689   184.73392   616.05390  -294.45538   323.67540
  E(xc)    -273.35529  -273.26489  -279.21159     0.11100    -0.67540     0.54182
  Local  -10219.01190 -7832.46483   489.85434 -1303.12910   714.37055  -759.05102
  n-local  -142.23278  -144.74327  -146.18665     1.28524     0.45214     0.40429
  augment    12.65085    12.43354    15.31252     0.08856     0.31667    -0.37133
  Kinetic  1091.98255  1094.45858  1237.65187     0.84578    13.66771   -14.35991
  Fock        0.00000     0.00000     0.00000     0.00000     0.00000     0.00000
  vdW         0.07769    -0.03174     0.08747    -0.02369    -0.00534    -0.00821
  -------------------------------------------------------------------------------------
  Total      -1.20826    -1.18299    -1.35970    -0.01472    -0.02425     0.02600
  in kB      -0.20951    -0.20512    -0.23577    -0.00255    -0.00420     0.00451
  external pressure =       -0.22 kB  Pullay stress =        0.00 kB



--------------------------------------------------------------------------------------------------------



  FREE ENERGIE OF THE ION-ELECTRON SYSTEM (eV)
  ---------------------------------------------------
  free  energy   TOTEN  =      -156.57544300 eV

  energy  without entropy=     -156.57544300  energy(sigma->0) =     -156.57544300
 
 d Force = 0.4330737E-04[ 0.331E-05, 0.833E-04]  d Energy = 0.4427408E-04-0.967E-06
 d Force =-0.1315901E+01[-0.132E+01,-0.132E+01]  d Ewald  =-0.1315901E+01 0.217E-07


--------------------------------------------------------------------------------------------------------


    POTLOK:  cpu time    1.6148: real time    1.6185


--------------------------------------------------------------------------------------------------------




--------------------------------------------------------------------------------------------------------


    WAVPRE:  cpu time    0.6979: real time    0.7018
    FEWALD:  cpu time    0.0000: real time    0.0008
    ORTHCH:  cpu time    0.4469: real time    0.4480
     LOOP+:  cpu time   37.2313: real time   37.3259


--------------------------------------- Iteration     14(   1)  ---------------------------------------


    POTLOK:  cpu time    1.6318: real time    1.6363
    SETDIJ:  cpu time    0.0060: real time    0.0063
     EDDAV:  cpu time    4.7523: real time    4.7639
       DOS:  cpu time    0.0010: real time    0.0002
    CHARGE:  cpu time    0.4859: real time    0.4877
    MIXING:  cpu time    0.0460: real time    0.0457
    --------------------------------------------
      LOOP:  cpu time    6.9229: real time    6.9400

 eigenvalue-minimisations  :   120
 total energy-change (2. order) : 0.3966829E-05  (-0.1352017E-02)
 number of electron      70.0000006 magnetization 
 augmentation part        2.8942238 magnetization 

  free energy =  -0.156057647429E+03  energy without entropy=  -0.156057647429E+03


--------------------------------------------------------------------------------------------------------




--------------------------------------- Iteration     14(   2)  ---------------------------------------


    POTLOK:  cpu time    1.6368: real time    1.6410
    SETDIJ:  cpu time    0.0060: real time    0.0060
    EDDIAG:  cpu time    0.8159: real time    0.8174
  RMM-DIIS:  cpu time    2.9885: real time    2.9962
    ORTHCH:  cpu time    0.1390: real time    0.1390
       DOS:  cpu time    0.0000: real time    0.0003
    CHARGE:  cpu time    0.4789: real time    0.4797
    MIXING:  cpu time    0.0470: real time    0.0476
    --------------------------------------------
      LOOP:  cpu time    6.1121: real time    6.1272

 eigenvalue-minimisations  :    96
 total energy-change (2. order) :-0.1558073E-04  (-0.2479690E-04)
 number of electron      70.0000006 magnetization 
 augmentation part        2.8942600 magnetization 

 eigenvalues of (default mixing * dielectric matrix)
  average eigenvalue GAMMA=   1.1468
  1.1468

  free energy =  -0.156057663010E+03  energy without entropy=  -0.156057663010E+03


--------------------------------------------------------------------------------------------------------




--------------------------------------- Iteration     14(   3)  ---------------------------------------


    POTLOK:  cpu time    1.6377: real time    1.6425
    SETDIJ:  cpu time    0.0070: real time    0.0063
    EDDIAG:  cpu time    0.8159: real time    0.8185
  RMM-DIIS:  cpu time    2.0527: real time    2.0577
    ORTHCH:  cpu time    0.1380: real time    0.1375
       DOS:  cpu time    0.0000: real time    0.0007
    CHARGE:  cpu time    0.4839: real time    0.4846
    MIXING:  cpu time    0.0480: real time    0.0485
    --------------------------------------------
      LOOP:  cpu time    5.1832: real time    5.1963

 eigenvalue-minimisations  :    61
 total energy-change (2. order) : 0.6062637E-06  (-0.1024286E-05)
 number of electron      70.0000006 magnetization 
 augmentation part        2.8942777 magnetization 

 eigenvalues of (default mixing * dielectric matrix)
  average eigenvalue GAMMA=   1.6454
  0.9646  2.3262

  free energy =  -0.156057662404E+03  energy without entropy=  -0.156057662404E+03


--------------------------------------------------------------------------------------------------------




--------------------------------------- Iteration     14(   4)  ---------------------------------------


    POTLOK:  cpu time    1.6408: real time    1.6447
    SETDIJ:  cpu time    0.0060: real time    0.0059
    EDDIAG:  cpu time    0.8149: real time    0.8172
  RMM-DIIS:  cpu time    1.9647: real time    1.9689
    ORTHCH:  cpu time    0.1390: real time    0.1390
       DOS:  cpu time    0.0000: real time    0.0006
    CHARGE:  cpu time    0.4849: real time    0.4854
    MIXING:  cpu time    0.0500: real time    0.0502
    --------------------------------------------
      LOOP:  cpu time    5.1002: real time    5.1118

 eigenvalue-minimisations  :    60
 total energy-change (2. order) :-0.1765093E-05  (-0.7733609E-06)
 number of electron      70.0000006 magnetization 
 augmentation part        2.8942663 magnetization 

 eigenvalues of (default mixing * dielectric matrix)
  average eigenvalue GAMMA=   1.5251
  2.2420  1.1667  1.1667

  free energy =  -0.156057664169E+03  energy without entropy=  -0.156057664169E+03


--------------------------------------------------------------------------------------------------------




--------------------------------------- Iteration     14(   5)  ---------------------------------------


    POTLOK:  cpu time    1.6458: real time    1.6506
    SETDIJ:  cpu time    0.0070: real time    0.0061
    EDDIAG:  cpu time    0.8139: real time    0.8168
  RMM-DIIS:  cpu time    1.9677: real time    1.9717
    ORTHCH:  cpu time    0.1390: real time    0.1390
       DOS:  cpu time    0.0000: real time    0.0006
    --------------------------------------------
      LOOP:  cpu time    4.5733: real time    4.5848

 eigenvalue-minimisations  :    58
 total energy-change (2. order) :-0.1656008E-06  (-0.1186433E-06)
 number of electron      70.0000006 magnetization 
 augmentation part        2.8942663 magnetization 

  free energy =  -0.156057664335E+03  energy without entropy=  -0.156057664335E+03


--------------------------------------------------------------------------------------------------------




------------------------ aborting loop because EDIFF is reached ----------------------------------------


    CHARGE:  cpu time    0.4799: real time    0.4807
    FORLOC:  cpu time    0.2500: real time    0.2502
    FORNL :  cpu time    0.9529: real time    0.9554
    STRESS:  cpu time    2.8686: real time    2.8759
    FORCOR:  cpu time    1.7387: real time    1.7425
    FORHAR:  cpu time    0.6089: real time    0.6100
    MIXING:  cpu time    0.0480: real time    0.0481
    OFIELD:  cpu time    0.0000: real time    0.0000

  Number of pair interactions contributing to vdW energy:    9059
  Edisp (eV):   -0.51786
    FORVDW:  cpu time    0.0020: real time    0.0022

  FORCE on cell =-STRESS in cart. coord.  units (eV):
  Direction    XX          YY          ZZ          XY          YZ          ZX
  --------------------------------------------------------------------------------------
  Alpha Z     2.29910     2.29910     2.29910
  Ewald    4602.31564  3395.01327 -1505.85138   684.98491  -433.86384   449.43845
  Hartree  4925.40770  3745.60570   184.93756   616.19432  -294.54164   323.81381
  E(xc)    -273.36263  -273.27169  -279.21916     0.11117    -0.67560     0.54222
  Local  -10220.36742 -7832.90245   489.58374 -1303.48647   714.60604  -759.41650
  n-local  -142.24469  -144.75822  -146.19410     1.28526     0.45236     0.40496
  augment    12.64986    12.43323    15.31179     0.08897     0.31707    -0.37179
  Kinetic  1092.03186  1094.52266  1237.68386     0.84311    13.66959   -14.37193
  Fock        0.00000     0.00000     0.00000     0.00000     0.00000     0.00000
  vdW         0.07777    -0.03195     0.08747    -0.02368    -0.00526    -0.00811
  -------------------------------------------------------------------------------------
  Total      -1.19281    -1.09036    -1.36112    -0.00241    -0.04128     0.03112
  in kB      -0.20683    -0.18906    -0.23601    -0.00042    -0.00716     0.00540
  external pressure =       -0.21 kB  Pullay stress =        0.00 kB



--------------------------------------------------------------------------------------------------------



  FREE ENERGIE OF THE ION-ELECTRON SYSTEM (eV)
  ---------------------------------------------------
  free  energy   TOTEN  =      -156.57552837 eV

  energy  without entropy=     -156.57552837  energy(sigma->0) =     -156.57552837
 
 d Force = 0.8288028E-04[ 0.433E-04, 0.122E-03]  d Energy = 0.8536935E-04-0.249E-05
 d Force =-0.1053634E+01[-0.105E+01,-0.105E+01]  d Ewald  =-0.1053634E+01 0.788E-08


--------------------------------------------------------------------------------------------------------


    POTLOK:  cpu time    1.6418: real time    1.6459


--------------------------------------------------------------------------------------------------------


 Conjugate gradient step on ions:
 trial-energy change:   -0.000085  1 .order   -0.000083   -0.000122   -0.000043
  (g-gl).g = 0.102E-03      g.g   = 0.107E-03  gl.gl    = 0.114E-03
 g(Force)  = 0.107E-03   g(Stress)= 0.000E+00 ortho     = 0.261E-05
 gamma     =   0.89610
 trial     =   1.12388
 opt step  =   1.73947  (harmonic =   1.73947) maximal distance =0.00115087
 next E    =  -156.575538   (d E  =  -0.00009)


--------------------------------------------------------------------------------------------------------


  
 reached required accuracy - stopping structural energy minimisation
     LOOP+:  cpu time   36.4945: real time   36.5868
    4ORBIT:  cpu time    0.0000: real time    0.0000

 total amount of memory used by VASP MPI-rank0   212111. kBytes
=======================================================================

   base      :      30000. kBytes
   nonlr-proj:       2222. kBytes
   fftplans  :      38602. kBytes
   grid      :     128386. kBytes
   one-center:         76. kBytes
   wavefun   :      12825. kBytes
 
  
  
 General timing and accounting informations for this job:
 ========================================================
  
                  Total CPU time used (sec):      645.969
                            User time (sec):      617.322
                          System time (sec):       28.647
                         Elapsed time (sec):      647.571
  
                   Maximum memory used (kb):      633096.
                   Average memory used (kb):           0.
  
                          Minor page faults:      1327937
                          Major page faults:            0
                 Voluntary context switches:         1457
