 vasp.5.4.4.18Apr17-6-g9f103f2a35 (build Jun 30 2017 19:19:18) complex          
  
 executed on         MareNostrum4 date 2022.04.12  11:02:55
 running on   48 total cores
 distrk:  each k-point on   48 cores,    1 groups
 distr:  one band on NCORES_PER_BAND=   1 cores,   48 groups


--------------------------------------------------------------------------------------------------------


 INCAR:
 POTCAR:    PAW_PBE Ag 02Apr2005                  
 POTCAR:    PAW_PBE O 08Apr2002                   
 POTCAR:    PAW_PBE C 08Apr2002                   
 POTCAR:    PAW_PBE N 08Apr2002                   
 POTCAR:    PAW_PBE H 15Jun2001                   

 ----------------------------------------------------------------------------- 
|                                                                             |
|           W    W    AA    RRRRR   N    N  II  N    N   GGGG   !!!           |
|           W    W   A  A   R    R  NN   N  II  NN   N  G    G  !!!           |
|           W    W  A    A  R    R  N N  N  II  N N  N  G       !!!           |
|           W WW W  AAAAAA  RRRRR   N  N N  II  N  N N  G  GGG   !            |
|           WW  WW  A    A  R   R   N   NN  II  N   NN  G    G                |
|           W    W  A    A  R    R  N    N  II  N    N   GGGG   !!!           |
|                                                                             |
|      For optimal performance we recommend to set                            |
|        NCORE= 4 - approx SQRT( number of cores)                             |
|      NCORE specifies how many cores store one orbital (NPAR=cpu/NCORE).     |
|      This setting can  greatly improve the performance of VASP for DFT.     |
|      The default,   NCORE=1            might be grossly inefficient         |
|      on modern multi-core architectures or massively parallel machines.     |
|      Do your own testing !!!!                                               |
|      Unfortunately you need to use the default for GW and RPA calculations. |
|      (for HF NCORE is supported but not extensively tested yet)             |
|                                                                             |
 ----------------------------------------------------------------------------- 

 POTCAR:    PAW_PBE Ag 02Apr2005                  
  local pseudopotential read in
  partial core-charges read in
  partial kinetic energy density read in
  atomic valenz-charges read in
  non local Contribution for L=           2  read in
    real space projection operators read in
  non local Contribution for L=           2  read in
    real space projection operators read in
  non local Contribution for L=           0  read in
    real space projection operators read in
  non local Contribution for L=           0  read in
    real space projection operators read in
  non local Contribution for L=           1  read in
    real space projection operators read in
  non local Contribution for L=           1  read in
    real space projection operators read in
    PAW grid and wavefunctions read in
 
   number of l-projection  operators is LMAX  =           6
   number of lm-projection operators is LMMAX =          18
 
 POTCAR:    PAW_PBE O 08Apr2002                   
  local pseudopotential read in
  partial core-charges read in
  partial kinetic energy density read in
  kinetic energy density of atom read in
  atomic valenz-charges read in
  non local Contribution for L=           0  read in
    real space projection operators read in
  non local Contribution for L=           0  read in
    real space projection operators read in
  non local Contribution for L=           1  read in
    real space projection operators read in
  non local Contribution for L=           1  read in
    real space projection operators read in
    PAW grid and wavefunctions read in
 
   number of l-projection  operators is LMAX  =           4
   number of lm-projection operators is LMMAX =           8
 
 POTCAR:    PAW_PBE C 08Apr2002                   
  local pseudopotential read in
  partial core-charges read in
  partial kinetic energy density read in
  atomic valenz-charges read in
  non local Contribution for L=           0  read in
    real space projection operators read in
  non local Contribution for L=           0  read in
    real space projection operators read in
  non local Contribution for L=           1  read in
    real space projection operators read in
  non local Contribution for L=           1  read in
    real space projection operators read in
    PAW grid and wavefunctions read in
 
   number of l-projection  operators is LMAX  =           4
   number of lm-projection operators is LMMAX =           8
 
 POTCAR:    PAW_PBE N 08Apr2002                   
  local pseudopotential read in
  partial core-charges read in
  partial kinetic energy density read in
  atomic valenz-charges read in
  non local Contribution for L=           0  read in
    real space projection operators read in
  non local Contribution for L=           0  read in
    real space projection operators read in
  non local Contribution for L=           1  read in
    real space projection operators read in
  non local Contribution for L=           1  read in
    real space projection operators read in
    PAW grid and wavefunctions read in
 
   number of l-projection  operators is LMAX  =           4
   number of lm-projection operators is LMMAX =           8
 
 POTCAR:    PAW_PBE H 15Jun2001                   
  local pseudopotential read in
  atomic valenz-charges read in
  non local Contribution for L=           0  read in
    real space projection operators read in
  non local Contribution for L=           0  read in
    real space projection operators read in
  non local Contribution for L=           1  read in
    real space projection operators read in
    PAW grid and wavefunctions read in
 
   number of l-projection  operators is LMAX  =           3
   number of lm-projection operators is LMMAX =           5
 
 Optimization of the real space projectors (new method)

 maximal supplied QI-value         = 15.12
 optimisation between [QCUT,QGAM] = [ 10.73, 21.62] = [ 32.26,130.87] Ry 
 Optimized for a Real-space Cutoff    1.42 Angstroem

   l    n(q)    QCUT    max X(q) W(low)/X(q) W(high)/X(q)  e(spline) 
   2      8    10.734    53.897    0.46E-03    0.48E-03    0.17E-06
   2      8    10.734    52.416    0.47E-03    0.50E-03    0.17E-06
   0      9    10.734   122.045    0.16E-03    0.13E-03    0.44E-07
   0      9    10.734    73.629    0.16E-03    0.13E-03    0.43E-07
   1      9    10.734    15.255    0.66E-04    0.32E-03    0.15E-06
   1      9    10.734     9.562    0.55E-04    0.26E-03    0.12E-06
 Optimization of the real space projectors (new method)

 maximal supplied QI-value         = 24.76
 optimisation between [QCUT,QGAM] = [ 10.64, 21.54] = [ 31.73,129.89] Ry 
 Optimized for a Real-space Cutoff    1.23 Angstroem

   l    n(q)    QCUT    max X(q) W(low)/X(q) W(high)/X(q)  e(spline) 
   0      8    10.645    20.381    0.38E-03    0.60E-03    0.15E-06
   0      8    10.645    15.268    0.40E-03    0.65E-03    0.17E-06
   1      7    10.645     5.964    0.30E-03    0.63E-03    0.18E-06
   1      7    10.645     5.382    0.24E-03    0.53E-03    0.16E-06
 Optimization of the real space projectors (new method)

 maximal supplied QI-value         = 25.13
 optimisation between [QCUT,QGAM] = [ 10.81, 21.61] = [ 32.71,130.83] Ry 
 Optimized for a Real-space Cutoff    1.23 Angstroem

   l    n(q)    QCUT    max X(q) W(low)/X(q) W(high)/X(q)  e(spline) 
   0      8    10.807   115.676    0.36E-03    0.72E-03    0.24E-06
   0      8    10.807    87.132    0.35E-03    0.71E-03    0.24E-06
   1      7    10.807     4.429    0.19E-03    0.39E-03    0.11E-06
   1      7    10.807     2.733    0.14E-03    0.28E-03    0.13E-06
 Optimization of the real space projectors (new method)

 maximal supplied QI-value         = 25.13
 optimisation between [QCUT,QGAM] = [ 10.81, 21.61] = [ 32.71,130.83] Ry 
 Optimized for a Real-space Cutoff    1.23 Angstroem

   l    n(q)    QCUT    max X(q) W(low)/X(q) W(high)/X(q)  e(spline) 
   0      8    10.807    79.467    0.34E-03    0.68E-03    0.21E-06
   0      8    10.807    66.151    0.34E-03    0.67E-03    0.21E-06
   1      7    10.807    14.030    0.45E-03    0.13E-02    0.11E-05
   1      7    10.807     9.831    0.48E-03    0.13E-02    0.11E-05
 Optimization of the real space projectors (new method)

 maximal supplied QI-value         = 34.20
 optimisation between [QCUT,QGAM] = [ 10.60, 21.55] = [ 31.48,130.03] Ry 
 Optimized for a Real-space Cutoff    1.23 Angstroem

   l    n(q)    QCUT    max X(q) W(low)/X(q) W(high)/X(q)  e(spline) 
   0      8    10.603    19.460    0.37E-03    0.59E-03    0.23E-06
   0      8    10.603    12.209    0.35E-03    0.56E-03    0.22E-06
   1      7    10.603     4.655    0.70E-04    0.28E-03    0.29E-06
  PAW_PBE Ag 02Apr2005                  :
 energy of atom  1       EATOM=-1037.2675
 kinetic energy error for atom=    0.0055 (will be added to EATOM!!)
  PAW_PBE O 08Apr2002                   :
 energy of atom  2       EATOM= -432.3788
 kinetic energy error for atom=    0.0389 (will be added to EATOM!!)
  PAW_PBE C 08Apr2002                   :
 energy of atom  3       EATOM= -147.1560
 kinetic energy error for atom=    0.0116 (will be added to EATOM!!)
  PAW_PBE N 08Apr2002                   :
 energy of atom  4       EATOM= -264.5486
 kinetic energy error for atom=    0.0253 (will be added to EATOM!!)
  PAW_PBE H 15Jun2001                   :
 energy of atom  5       EATOM=  -12.4884
 kinetic energy error for atom=    0.0045 (will be added to EATOM!!)
 
 
 POSCAR: Ag  O  C  N  H                          
  positions in direct lattice
  velocities in cartesian coordinates
 exchange correlation table for  LEXCH =        8
   RHO(1)=    0.500       N(1)  =     2000
   RHO(2)=  100.500       N(2)  =     4000
 


--------------------------------------------------------------------------------------------------------


 ion  position               nearest neighbor table
   1  0.000  0.000  0.000-  28 2.89   4 2.89   3 2.89  35 2.89  10 2.89   2 2.89  70 2.89  40 2.89
                            47 2.89
   2  1.000  0.167  0.000-  27 2.89   8 2.89   5 2.89  28 2.89   3 2.89   1 2.89  39 2.89  61 2.89
                            40 2.89
   3  0.167  0.167  0.000-  14 2.89  17 2.89   8 2.89   2 2.89   1 2.89   4 2.89  38 2.89  40 2.89
                            37 2.89
   4  0.167  0.000  0.000-  13 2.89  14 2.89   1 2.89  11 2.89  10 2.89   3 2.89  37 2.89  47 2.89
                            46 2.89
   5  0.000  0.333  0.000-   8 2.89  27 2.89   2 2.89  32 2.89   6 2.89   7 2.89  62 2.89  44 2.89
                            39 2.89
   6  0.000  0.500  0.000-  12 2.89   7 2.89   9 2.89  31 2.89   5 2.89  32 2.89  43 2.89  65 2.89
                            44 2.89
   7  0.167  0.500  0.000-   6 2.89  18 2.89  21 2.89  12 2.89   5 2.89   8 2.89  42 2.89  44 2.89
                            41 2.89
   8  0.167  0.333  0.000-   5 2.89   2 2.89   3 2.89  17 2.89  18 2.89   7 2.89  39 2.89  41 2.89
                            38 2.89
   9  0.000  0.667  0.000-  12 2.89  36 2.89  31 2.89  11 2.89   6 2.89  10 2.89  66 2.89  48 2.89
                            43 2.89
  10  1.000  0.833  0.000-  36 2.89  35 2.89   9 2.89  11 2.89   1 2.89   4 2.89  69 2.89  47 2.89
                            48 2.89
  11  0.167  0.833  0.000-  22 2.89   9 2.89  12 2.89  10 2.89   4 2.89  13 2.89  46 2.89  48 2.89
                            45 2.89
  12  0.167  0.667  0.000-   6 2.89   9 2.89  22 2.89  11 2.89   7 2.89  21 2.89  43 2.89  45 2.89
                            42 2.89
  13  0.333  0.000  0.000-   4 2.89  16 2.89  15 2.89  22 2.89  11 2.89  14 2.89  46 2.89  52 2.89
                            59 2.89
  14  0.333  0.167  0.000-   3 2.89  17 2.89   4 2.89  20 2.89  15 2.89  13 2.89  51 2.89  37 2.89
                            52 2.89
  15  0.500  0.167  0.000-  26 2.89  20 2.89  29 2.89  14 2.89  13 2.89  16 2.89  50 2.89  52 2.89
                            49 2.89
  16  0.500  0.000  0.000-  25 2.89  26 2.89  13 2.89  23 2.89  22 2.89  15 2.89  49 2.89  59 2.89
                            58 2.89
  17  0.333  0.333  0.000-  14 2.89   3 2.89   8 2.89  20 2.89  19 2.89  18 2.89  38 2.89  56 2.89
                            51 2.89
  18  0.333  0.500  0.000-   7 2.89  21 2.89  24 2.89  19 2.89   8 2.89  17 2.89  55 2.89  41 2.89
                            56 2.89
  19  0.500  0.500  0.000-  30 2.89  24 2.89  33 2.89  18 2.89  17 2.89  20 2.89  54 2.89  56 2.89
                            53 2.89
  20  0.500  0.333  0.000-  29 2.89  15 2.89  30 2.89  14 2.89  17 2.89  19 2.89  53 2.89  51 2.89
                            50 2.89
  21  0.333  0.667  0.000-  18 2.89  23 2.89   7 2.89  22 2.89  12 2.89  24 2.89  42 2.89  60 2.89
                            55 2.89
  22  0.333  0.833  0.000-  11 2.89  12 2.89  21 2.89  23 2.89  13 2.89  16 2.89  45 2.89  59 2.89
                            60 2.89
  23  0.500  0.833  0.000-  34 2.89  21 2.89  24 2.89  22 2.89  25 2.89  16 2.89  58 2.89  60 2.89
                            57 2.89
  24  0.500  0.667  0.000-  34 2.89  33 2.89  19 2.89  23 2.89  18 2.89  21 2.89  57 2.89  55 2.89
                            54 2.89
  25  0.667  0.000  0.000-  16 2.89  28 2.89  23 2.89  27 2.89  34 2.89  26 2.89  58 2.89  64 2.89
                            71 2.89
  26  0.667  0.167  0.000-  15 2.89  32 2.89  29 2.89  16 2.89  27 2.89  25 2.89  63 2.89  49 2.89
                            64 2.89
  27  0.833  0.167  0.000-   2 2.89   5 2.89  32 2.89  26 2.89  25 2.89  28 2.89  62 2.89  64 2.89
                            61 2.89
  28  0.833  0.000  0.000-   1 2.89   2 2.89  25 2.89  35 2.89  34 2.89  27 2.89  61 2.89  71 2.89
                            70 2.89
  29  0.667  0.333  0.000-  20 2.89  32 2.89  15 2.89  26 2.89  31 2.89  30 2.89  50 2.89  68 2.89
                            63 2.89
  30  0.667  0.500  0.000-  19 2.89  33 2.89  20 2.89  36 2.89  31 2.89  29 2.89  67 2.89  53 2.89
                            68 2.89
  31  0.833  0.500  0.000-   9 2.89  36 2.89  30 2.89   6 2.89  32 2.89  29 2.89  66 2.89  68 2.89
                            65 2.89
  32  0.833  0.333  0.000-  29 2.89  26 2.89  27 2.89   5 2.89  31 2.89   6 2.89  63 2.89  65 2.89
                            62 2.89
  33  0.667  0.667  0.000-  24 2.89  19 2.89  30 2.89  35 2.89  34 2.89  36 2.89  54 2.89  72 2.89
                            67 2.89
  34  0.667  0.833  0.000-  24 2.89  23 2.89  33 2.89  35 2.89  25 2.89  28 2.89  57 2.89  71 2.89
                            72 2.89
  35  0.833  0.833  0.000-  10 2.89  33 2.89  36 2.89  34 2.89   1 2.89  28 2.89  70 2.89  72 2.89
                            69 2.89
  36  0.833  0.667  0.000-  10 2.89   9 2.89  31 2.89  35 2.89  30 2.89  33 2.89  69 2.89  67 2.89
                            66 2.89
  37  0.222  0.111  0.107-  76 2.89  52 2.89  51 2.89  38 2.89  40 2.89  46 2.89  47 2.89  14 2.89
                             4 2.89   3 2.89  74 2.90  75 2.92
  38  0.222  0.278  0.107-  51 2.89  37 2.89  56 2.89  40 2.89  39 2.89  41 2.89   3 2.89  17 2.89
                             8 2.89  76 2.90  73 2.91  79 2.91
  39  0.056  0.278  0.107-  62 2.89  61 2.89  40 2.89  38 2.89  44 2.89  41 2.89   2 2.89   8 2.89
                             5 2.89  73 2.90 100 2.92  78 2.92
  40  0.056  0.111  0.107-  61 2.89  39 2.89  70 2.89  38 2.89  37 2.89  47 2.89   1 2.89   3 2.89
                             2 2.89  74 2.90  73 2.91  99 2.91
  41  0.222  0.444  0.107-  56 2.89  55 2.89  42 2.89  44 2.89  39 2.89  38 2.89  18 2.89   8 2.89
                             7 2.89  79 2.90  80 2.92  78 2.92
  42  0.222  0.611  0.107-  55 2.89  41 2.89  60 2.89  44 2.89  43 2.89  45 2.89   7 2.89  21 2.89
                            12 2.89  83 2.91  77 2.91  80 2.92
  43  0.056  0.611  0.107-  66 2.89  65 2.89  44 2.89  42 2.89  48 2.89  45 2.89   6 2.89  12 2.89
                             9 2.89 104 2.91  77 2.91  82 2.91
  44  0.056  0.444  0.107-  65 2.89  43 2.89  62 2.89  42 2.89  41 2.89  39 2.89   5 2.89   7 2.89
                             6 2.89  77 2.91 103 2.92  78 2.92
  45  0.222  0.778  0.107-  60 2.89  59 2.89  46 2.89  48 2.89  42 2.89  43 2.89  22 2.89  12 2.89
                            11 2.89  83 2.91  82 2.91  84 2.92
  46  0.222  0.944  0.107-  59 2.89  45 2.89  52 2.89  48 2.89  47 2.89  37 2.89  13 2.89  11 2.89
                             4 2.89  81 2.91  75 2.91  84 2.92
  47  0.056  0.944  0.107-  70 2.89  69 2.89  48 2.89  46 2.89  40 2.89  37 2.89  10 2.89   4 2.89
                             1 2.89  74 2.90 108 2.91  81 2.91
  48  0.056  0.778  0.107-  69 2.89  47 2.89  66 2.89  46 2.89  45 2.89  43 2.89  11 2.89   9 2.89
                            10 2.89 107 2.89  81 2.91  82 2.91
  49  0.556  0.111  0.107-  64 2.89  63 2.89  50 2.89  52 2.89  58 2.89  59 2.89  26 2.89  16 2.89
                            15 2.89  88 2.92  87 2.92  86 2.92
  50  0.556  0.278  0.107-  63 2.89  49 2.89  68 2.89  52 2.89  51 2.89  53 2.89  15 2.89  29 2.89
                            20 2.89  85 2.90  91 2.91  88 2.92
  51  0.389  0.278  0.107-  38 2.89  37 2.89  52 2.89  50 2.89  53 2.89  56 2.89  14 2.89  20 2.89
                            17 2.89  76 2.89  90 2.89  85 2.91
  52  0.389  0.111  0.107-  37 2.89  51 2.89  46 2.89  50 2.89  49 2.89  59 2.89  13 2.89  15 2.89
                            14 2.89  85 2.90  75 2.91  86 2.92
  53  0.556  0.444  0.107-  90 2.89  68 2.89  67 2.89  54 2.89  56 2.89  51 2.89  50 2.89  30 2.89
                            20 2.89  19 2.89  92 2.90  91 2.91
  54  0.556  0.611  0.107-  67 2.89  53 2.89  72 2.89  56 2.89  55 2.89  57 2.89  19 2.89  33 2.89
                            24 2.89  95 2.89  92 2.91  89 2.91
  55  0.389  0.611  0.107-  42 2.89  41 2.89  56 2.89  54 2.89  60 2.89  57 2.89  18 2.89  24 2.89
                            21 2.89  94 2.90  89 2.91  80 2.92
  56  0.389  0.444  0.107-  41 2.89  55 2.89  38 2.89  54 2.89  53 2.89  51 2.89  17 2.89  19 2.89
                            18 2.89  90 2.90  89 2.91  79 2.91
  57  0.556  0.778  0.107-  95 2.89  72 2.89  71 2.89  58 2.89  60 2.89  54 2.89  55 2.89  34 2.89
                            24 2.89  23 2.89  94 2.90  96 2.91
  58  0.556  0.944  0.107-  71 2.89  57 2.89  64 2.89  60 2.89  59 2.89  49 2.89  25 2.89  23 2.89
                            16 2.89  96 2.90  93 2.91  87 2.92
  59  0.389  0.944  0.107-  46 2.89  45 2.89  60 2.89  58 2.89  52 2.89  49 2.89  22 2.89  16 2.89
                            13 2.89  93 2.91  86 2.92  84 2.92
  60  0.389  0.778  0.107-  45 2.89  59 2.89  42 2.89  58 2.89  57 2.89  55 2.89  23 2.89  21 2.89
                            22 2.89  94 2.90  83 2.91  93 2.91
  61  0.889  0.111  0.107-  40 2.89  39 2.89  62 2.89  64 2.89  70 2.89  71 2.89   2 2.89  28 2.89
                            27 2.89  99 2.91 100 2.92  98 2.92
  62  0.889  0.278  0.107-  39 2.89  61 2.89  44 2.89  64 2.89  63 2.89  65 2.89  27 2.89   5 2.89
                            32 2.89 103 2.92 100 2.92  97 2.92
  63  0.722  0.278  0.107-  50 2.89  49 2.89  64 2.89  62 2.89  65 2.89  68 2.89  26 2.89  32 2.89
                            29 2.89 102 2.91  88 2.92  97 2.92
  64  0.722  0.111  0.107-  49 2.89  63 2.89  58 2.89  62 2.89  61 2.89  71 2.89  25 2.89  27 2.89
                            26 2.89  87 2.92  98 2.92  97 2.92
  65  0.889  0.444  0.107-  44 2.89  43 2.89  66 2.89  68 2.89  63 2.89  62 2.89   6 2.89  32 2.89
                            31 2.89 104 2.91 102 2.91 103 2.92
  66  0.889  0.611  0.107-  43 2.89  65 2.89  48 2.89  68 2.89  67 2.89  69 2.89  31 2.89   9 2.89
                            36 2.89 107 2.90 101 2.90 104 2.91
  67  0.722  0.611  0.107-  54 2.89  53 2.89  68 2.89  66 2.89  72 2.89  69 2.89  30 2.89  36 2.89
                            33 2.89 106 2.90  92 2.90 101 2.91
  68  0.722  0.444  0.107-  53 2.89  67 2.89  50 2.89  66 2.89  65 2.89  63 2.89  29 2.89  31 2.89
                            30 2.89  91 2.90 101 2.90 102 2.91
  69  0.889  0.778  0.107- 106 2.89  48 2.89  47 2.89  70 2.89  72 2.89  66 2.89  67 2.89  10 2.89
                            36 2.89  35 2.89 107 2.90 108 2.91
  70  0.889  0.944  0.107-  47 2.89  69 2.89  40 2.89  72 2.89  71 2.89  61 2.89   1 2.89  35 2.89
                            28 2.89 105 2.90 108 2.91  99 2.91
  71  0.722  0.944  0.107-  58 2.89  57 2.89  72 2.89  70 2.89  64 2.89  61 2.89  34 2.89  28 2.89
                            25 2.89 105 2.90  96 2.91  98 2.92
  72  0.722  0.778  0.107-  95 2.89  57 2.89  71 2.89  54 2.89  70 2.89  69 2.89  67 2.89  35 2.89
                            33 2.89  34 2.89 106 2.89 105 2.91
  73  0.111  0.222  0.215-  78 2.89 100 2.89  79 2.89  99 2.89 111 2.90  76 2.90  39 2.90  74 2.90
                            38 2.91  40 2.91 110 2.94 116 2.94
  74  0.111  0.055  0.214- 108 2.88  81 2.89  76 2.89  99 2.89  75 2.89  47 2.90 111 2.90  40 2.90
                            37 2.90  73 2.90 109 2.94 112 2.94
  75  0.278  0.055  0.215-  76 2.89  84 2.89  81 2.89  86 2.89  85 2.89  74 2.89  46 2.91  52 2.91
                            37 2.92 112 2.93 122 2.93 121 2.94
  76  0.278  0.222  0.214- 125 2.88  75 2.89  37 2.89  85 2.89  74 2.89  51 2.89  38 2.90  73 2.90
                            90 2.90  79 2.91 111 2.91 122 2.95
  77  0.111  0.556  0.215- 104 2.89  82 2.89  78 2.89  83 2.89  80 2.89 103 2.89  43 2.91  42 2.91
                            44 2.91 115 2.93 114 2.93 120 2.94
  78  0.111  0.389  0.215-  79 2.89  73 2.89 103 2.89 100 2.89  77 2.89  80 2.89  44 2.92  39 2.92
                            41 2.92 115 2.92 113 2.93 116 2.93
  79  0.277  0.389  0.215- 125 2.88  78 2.89  80 2.89  73 2.89  89 2.89  41 2.90  90 2.91  76 2.91
                            38 2.91  56 2.91 126 2.93 116 2.94
  80  0.278  0.556  0.215-  79 2.89  77 2.89  94 2.89  89 2.89  83 2.89  78 2.89  42 2.92  55 2.92
                            41 2.92 129 2.93 126 2.93 115 2.93
  81  0.111  0.889  0.215- 107 2.88  74 2.89  75 2.89  82 2.89  84 2.89 108 2.89  46 2.91  48 2.91
                            47 2.91 112 2.93 118 2.93 119 2.94
  82  0.111  0.722  0.215- 107 2.89  83 2.89  84 2.89  81 2.89  77 2.89 104 2.89  45 2.91  43 2.91
                            48 2.91 117 2.93 120 2.94 119 2.94
  83  0.278  0.722  0.215-  82 2.89  94 2.89  84 2.89  77 2.89  93 2.89  80 2.89  45 2.91  42 2.91
                            60 2.91 129 2.93 120 2.94 130 2.94
  84  0.278  0.889  0.215-  93 2.89  83 2.89  75 2.89  82 2.89  81 2.89  86 2.89  45 2.92  59 2.92
                            46 2.92 130 2.93 119 2.93 121 2.93
  85  0.444  0.222  0.214-  86 2.89  88 2.89  76 2.89  75 2.89  90 2.90  91 2.90  52 2.90  50 2.90
                            51 2.91 128 2.91 122 2.94 123 2.95
  86  0.444  0.056  0.215-  85 2.89  93 2.89  75 2.89  87 2.89  88 2.89  84 2.89  59 2.92  49 2.92
                            52 2.92 123 2.93 124 2.93 121 2.94
  87  0.611  0.056  0.215-  96 2.89  88 2.89  86 2.89  97 2.89  93 2.89  98 2.89  49 2.92  64 2.92
                            58 2.92 134 2.94 133 2.94 124 2.94
  88  0.611  0.222  0.215-  87 2.89  85 2.89  91 2.89  97 2.89  86 2.89 102 2.89  49 2.92  63 2.92
                            50 2.92 137 2.93 123 2.94 134 2.94
  89  0.444  0.555  0.215-  90 2.89  79 2.89  80 2.89 132 2.89  92 2.90  95 2.90  94 2.90  56 2.91
                            54 2.91  55 2.91 127 2.91 126 2.93
  90  0.445  0.389  0.214- 125 2.88  53 2.89  92 2.89  89 2.89  91 2.89  51 2.89  85 2.90  56 2.90
                            76 2.90  79 2.91 127 2.92 128 2.93
  91  0.612  0.389  0.215- 102 2.89 101 2.89  88 2.89  90 2.89  92 2.89  85 2.90  68 2.90 128 2.91
                            50 2.91  53 2.91 138 2.94 137 2.94
  92  0.612  0.556  0.215- 101 2.89  90 2.89  91 2.89 106 2.90  89 2.90  95 2.90  67 2.90 141 2.90
                           127 2.90  53 2.90  54 2.91 138 2.94
  93  0.444  0.889  0.215-  84 2.89  86 2.89  94 2.89  96 2.89  83 2.89  87 2.89  59 2.91  58 2.91
                            60 2.91 131 2.93 130 2.94 124 2.94
  94  0.444  0.722  0.214-  83 2.89  93 2.89  80 2.89  96 2.89  95 2.89  60 2.90  89 2.90 132 2.90
                            57 2.90  55 2.90 129 2.94 131 2.94
  95  0.611  0.723  0.214-  57 2.89  72 2.89  96 2.89  54 2.89  94 2.89 105 2.90 106 2.90  89 2.90
                            92 2.90 141 2.91 132 2.91 142 2.93
  96  0.611  0.889  0.215-  87 2.89  98 2.89  93 2.89  95 2.89  94 2.89 105 2.90  58 2.90  71 2.91
                            57 2.91 142 2.92 131 2.93 133 2.94
  97  0.778  0.222  0.215-  98 2.89 102 2.89 100 2.89  88 2.89  87 2.89 103 2.89  64 2.92  62 2.92
                            63 2.92 140 2.93 134 2.93 135 2.93
  98  0.778  0.056  0.215- 105 2.89  97 2.89  96 2.89 100 2.89  99 2.89  87 2.89  61 2.92  64 2.92
                            71 2.92 135 2.93 136 2.94 133 2.94
  99  0.944  0.056  0.215- 105 2.89  98 2.89 100 2.89  73 2.89  74 2.89 108 2.89  61 2.91  70 2.91
                            40 2.91 110 2.93 109 2.93 136 2.94
 100  0.944  0.222  0.215-  73 2.89  97 2.89  98 2.89  78 2.89 103 2.89  99 2.89  62 2.92  61 2.92
                            39 2.92 110 2.92 113 2.94 135 2.94
 101  0.778  0.555  0.215-  92 2.89  91 2.89 104 2.89 102 2.89 107 2.90 106 2.90 144 2.90  66 2.90
                            68 2.90  67 2.91 138 2.93 139 2.94
 102  0.778  0.389  0.215-  91 2.89 103 2.89  97 2.89  88 2.89 101 2.89 104 2.89  63 2.91  65 2.91
                            68 2.91 139 2.93 137 2.93 140 2.94
 103  0.944  0.389  0.215- 102 2.89  78 2.89 104 2.89 100 2.89  77 2.89  97 2.89  44 2.92  62 2.92
                            65 2.92 140 2.93 114 2.94 113 2.94
 104  0.945  0.556  0.215-  77 2.89 103 2.89 101 2.89  82 2.89 102 2.89 107 2.89  43 2.91  65 2.91
                            66 2.91 139 2.93 117 2.93 114 2.94
 105  0.778  0.889  0.215-  99 2.89  98 2.89 108 2.89 106 2.89  95 2.90  96 2.90  70 2.90  71 2.90
                            72 2.91 142 2.91 143 2.94 136 2.94
 106  0.778  0.723  0.214- 108 2.88  69 2.89 105 2.89  72 2.89  95 2.90  92 2.90 107 2.90  67 2.90
                           141 2.90 101 2.90 144 2.90 143 2.95
 107  0.945  0.723  0.214-  81 2.88  82 2.89 108 2.89 104 2.89  48 2.89 106 2.90 144 2.90 101 2.90
                            66 2.90  69 2.90 117 2.94 118 2.94
 108  0.944  0.889  0.215- 106 2.88  74 2.88 105 2.89 107 2.89  99 2.89  81 2.89  69 2.91  47 2.91
                            70 2.91 109 2.93 143 2.93 118 2.93
 109  0.000  1.000  0.324- 143 2.88 111 2.89 118 2.89 112 2.89 110 2.89 136 2.89  99 2.93 108 2.93
                            74 2.94
 110  1.000  0.167  0.324- 136 2.89 135 2.89 111 2.89 116 2.89 113 2.89 109 2.89 100 2.92  99 2.93
                            73 2.94
 111  0.166  0.166  0.322- 109 2.89 125 2.89 110 2.89 116 2.89 112 2.89  73 2.90 122 2.90  74 2.90
                            76 2.91
 112  0.167  1.000  0.324- 118 2.89 119 2.89 121 2.89 109 2.89 122 2.89 111 2.89  75 2.93  81 2.93
                            74 2.94
 113  1.000  0.333  0.325- 140 2.89 135 2.89 115 2.89 110 2.89 116 2.89 114 2.89  78 2.93 100 2.94
                           103 2.94
 114  0.000  0.500  0.324- 139 2.89 115 2.89 120 2.89 117 2.89 140 2.89 113 2.89  77 2.93 103 2.94
                           104 2.94
 115  0.167  0.500  0.324- 114 2.89 120 2.89 113 2.89 129 2.89 126 2.89 116 2.90  78 2.92  77 2.93
                            80 2.93
 116  0.167  0.333  0.325- 111 2.89 110 2.89 126 2.89 113 2.89 115 2.90 125 2.90  78 2.93  79 2.94
                            73 2.94
 117  0.000  0.667  0.324- 139 2.89 119 2.89 120 2.89 144 2.89 118 2.89 114 2.89  82 2.93 104 2.93
                           107 2.94
 118  0.000  0.833  0.324- 144 2.88 112 2.89 109 2.89 119 2.89 117 2.89 143 2.89  81 2.93 108 2.93
                           107 2.94
 119  0.167  0.833  0.325- 120 2.89 117 2.89 112 2.89 118 2.89 121 2.89 130 2.89  84 2.93  82 2.94
                            81 2.94
 120  0.167  0.667  0.325- 119 2.89 117 2.89 130 2.89 129 2.89 114 2.89 115 2.89  82 2.94  83 2.94
                            77 2.94
 121  0.333  1.000  0.325- 122 2.89 112 2.89 123 2.89 119 2.89 124 2.89 130 2.89  84 2.93  86 2.94
                            75 2.94
 122  0.333  0.166  0.324- 125 2.88 121 2.89 123 2.89 112 2.89 128 2.89 111 2.90  75 2.93  85 2.94
                            76 2.95
 123  0.500  0.167  0.325- 128 2.88 122 2.89 124 2.89 121 2.89 134 2.89 137 2.89  86 2.93  88 2.94
                            85 2.95
 124  0.500  1.000  0.325- 131 2.89 123 2.89 133 2.89 130 2.89 121 2.89 134 2.89  86 2.93  87 2.94
                            93 2.94
 125  0.333  0.332  0.320-  79 2.88  76 2.88 122 2.88  90 2.88 111 2.89 128 2.90 116 2.90 126 2.91
                           127 2.91
 126  0.333  0.500  0.324- 116 2.89 115 2.89 129 2.90 132 2.90 125 2.91 127 2.92  80 2.93  89 2.93
                            79 2.93
 127  0.501  0.500  0.322- 138 2.88 128 2.89 141 2.90  92 2.90 125 2.91 132 2.91  89 2.91 126 2.92
                            90 2.92
 128  0.500  0.333  0.322- 123 2.88 137 2.89 127 2.89 122 2.89 125 2.90 138 2.90  91 2.91  85 2.91
                            90 2.93
 129  0.333  0.667  0.324- 130 2.89 120 2.89 131 2.89 115 2.89 132 2.89 126 2.90  80 2.93  83 2.93
                            94 2.94
 130  0.333  0.833  0.325- 129 2.89 120 2.89 131 2.89 124 2.89 121 2.89 119 2.89  84 2.93  93 2.94
                            83 2.94
 131  0.500  0.833  0.324- 133 2.89 124 2.89 130 2.89 132 2.89 129 2.89 142 2.90  93 2.93  96 2.93
                            94 2.94
 132  0.500  0.667  0.322- 131 2.89  89 2.89 129 2.89 142 2.90 141 2.90 126 2.90  94 2.90  95 2.91
                           127 2.91
 133  0.667  1.000  0.325- 142 2.89 131 2.89 124 2.89 134 2.89 135 2.89 136 2.89  98 2.94  87 2.94
                            96 2.94
 134  0.667  0.167  0.325- 137 2.89 135 2.89 133 2.89 123 2.89 124 2.89 140 2.89  97 2.93  87 2.94
                            88 2.94
 135  0.833  0.167  0.325- 110 2.89 134 2.89 136 2.89 140 2.89 113 2.89 133 2.89  97 2.93  98 2.93
                           100 2.94
 136  0.833  0.000  0.325- 142 2.88 143 2.89 110 2.89 135 2.89 109 2.89 133 2.89  98 2.94  99 2.94
                           105 2.94
 137  0.667  0.333  0.324- 128 2.89 134 2.89 140 2.89 138 2.89 123 2.89 139 2.90  88 2.93 102 2.93
                            91 2.94
 138  0.668  0.500  0.324- 127 2.88 139 2.88 137 2.89 144 2.90 128 2.90 141 2.91 101 2.93  91 2.94
                            92 2.94
 139  0.834  0.500  0.324- 138 2.88 114 2.89 117 2.89 140 2.89 137 2.90 144 2.90 104 2.93 102 2.93
                           101 2.94
 140  0.834  0.333  0.324- 137 2.89 113 2.89 139 2.89 135 2.89 114 2.89 134 2.89  97 2.93 103 2.93
                           102 2.94
 141  0.668  0.668  0.321- 143 2.88 142 2.89 144 2.89 132 2.90 106 2.90 127 2.90  92 2.90  95 2.91
                           138 2.91
 142  0.667  0.834  0.323- 136 2.88 141 2.89 133 2.89 143 2.89 131 2.90 132 2.90 105 2.91  96 2.92
                            95 2.93
 143  0.834  0.834  0.324- 141 2.88 109 2.88 136 2.89 142 2.89 144 2.89 118 2.89 108 2.93 105 2.94
                           106 2.95
 144  0.834  0.667  0.322- 118 2.88 141 2.89 117 2.89 143 2.89 138 2.90 107 2.90 101 2.90 139 2.90
                           106 2.90
 145  0.688  0.532  0.469- 156 1.23
 146  0.786  0.682  0.477- 156 1.36 157 1.45
 147  0.221  0.299  0.475- 158 1.22
 148  0.280  0.205  0.473- 158 1.37 159 1.44
 149  0.546  0.731  0.477- 168 1.10 167 1.10 169 1.11 150 1.50
 150  0.500  0.632  0.469- 151 1.40 155 1.42 149 1.50
 151  0.408  0.580  0.467- 162 1.09 150 1.40 152 1.40
 152  0.361  0.487  0.464- 163 1.09 151 1.40 153 1.40
 153  0.411  0.443  0.463- 161 1.40 152 1.40 154 1.41
 154  0.504  0.493  0.463- 164 1.09 155 1.40 153 1.41
 155  0.549  0.586  0.467- 160 1.40 154 1.40 150 1.42
 156  0.703  0.609  0.472- 145 1.23 146 1.36 160 1.38
 157  0.858  0.662  0.480- 170 1.10 171 1.10 172 1.10 146 1.45
 158  0.285  0.287  0.471- 147 1.22 148 1.37 161 1.38
 159  0.191  0.131  0.482- 175 1.09 173 1.10 174 1.10 148 1.44
 160  0.642  0.637  0.470- 165 1.02 156 1.38 155 1.40
 161  0.373  0.351  0.462- 166 1.02 158 1.38 153 1.40
 162  0.369  0.615  0.468- 151 1.09
 163  0.289  0.449  0.464- 152 1.09
 164  0.543  0.459  0.463- 154 1.09
 165  0.669  0.704  0.471- 160 1.02
 166  0.416  0.327  0.459- 161 1.02
 167  0.582  0.752  0.520- 149 1.10
 168  0.498  0.754  0.475- 149 1.10
 169  0.595  0.766  0.440- 149 1.11
 170  0.919  0.726  0.472- 157 1.10
 171  0.859  0.636  0.525- 157 1.10
 172  0.850  0.613  0.445- 157 1.10
 173  0.164  0.136  0.526- 159 1.10
 174  0.146  0.130  0.446- 159 1.10
 175  0.198  0.072  0.479- 159 1.09
 
  LATTYP: Found a hexagonal cell.
 ALAT       =    17.3505005836
 C/A-ratio  =     1.2727759369
  
  Lattice vectors:
  
 A1 = (  17.3505005835,   0.0000000000,   0.0000000000)
 A2 = (  -8.6752502919,  15.0259742739,   0.0000000000)
 A3 = (   0.0000000000,   0.0000000000,  22.0832996368)


Analysis of symmetry for initial positions (statically):
=====================================================================
 Subroutine PRICEL returns:
 Original cell was already a primitive cell.
 

 Routine SETGRP: Setting up the symmetry group for a 
 hexagonal supercell.


 Subroutine GETGRP returns: Found  1 space group operations
 (whereof  1 operations were pure point group operations)
 out of a pool of 24 trial point group operations.


The static configuration has the point symmetry C_1 .


Analysis of symmetry for dynamics (positions and initial velocities):
=====================================================================
 Subroutine PRICEL returns:
 Original cell was already a primitive cell.
 

 Routine SETGRP: Setting up the symmetry group for a 
 hexagonal supercell.


 Subroutine GETGRP returns: Found  1 space group operations
 (whereof  1 operations were pure point group operations)
 out of a pool of 24 trial point group operations.


The dynamic configuration has the point symmetry C_1 .


Analysis of constrained symmetry for selective dynamics:
=====================================================================
 Subroutine PRICEL returns:
 Original cell was already a primitive cell.
 

 Routine SETGRP: Setting up the symmetry group for a 
 hexagonal supercell.


 Subroutine GETGRP returns: Found  1 space group operations
 (whereof  1 operations were pure point group operations)
 out of a pool of 24 trial point group operations.


The constrained configuration has the point symmetry C_1 .


 Subroutine INISYM returns: Found  1 space group operations
 (whereof  1 operations are pure point group operations),
 and found     1 'primitive' translations

 
 
 KPOINTS: K-POINTS                                

Automatic generation of k-mesh.
Space group operators:
 irot       det(A)        alpha          n_x          n_y          n_z        tau_x        tau_y        tau_z
    1     1.000000     0.000000     1.000000     0.000000     0.000000     0.000000     0.000000     0.000000
 
 Subroutine IBZKPT returns following result:
 ===========================================
 
 Found      5 irreducible k-points:
 
 Following reciprocal coordinates:
            Coordinates               Weight
  0.000000  0.000000  0.000000      1.000000
  0.333333  0.000000  0.000000      2.000000
  0.000000  0.333333  0.000000      2.000000
  0.333333  0.333333  0.000000      2.000000
 -0.333333  0.333333  0.000000      2.000000
 
 Following cartesian coordinates:
            Coordinates               Weight
  0.000000  0.000000  0.000000      1.000000
  0.019212  0.011092  0.000000      2.000000
  0.000000  0.022184  0.000000      2.000000
  0.019212  0.033276  0.000000      2.000000
 -0.019212  0.011092  0.000000      2.000000
 


--------------------------------------------------------------------------------------------------------




 Dimension of arrays:
   k-points           NKPTS =      5   k-points in BZ     NKDIM =      5   number of bands    NBANDS=   1008
   number of dos      NEDOS =    301   number of ions     NIONS =    175
   non local maximal  LDIM  =      6   non local SUM 2l+1 LMDIM =     18
   total plane-waves  NPLWV = 972000
   max r-space proj   IRMAX =   2084   max aug-charges    IRDMAX=   8500
   dimension x,y,z NGX =    90 NGY =   90 NGZ =  120
   dimension x,y,z NGXF=   180 NGYF=  180 NGZF=  240
   support grid    NGXF=   180 NGYF=  180 NGZF=  240
   ions per type =             144   4  11   2  14
   NGX,Y,Z   is equivalent  to a cutoff of   8.62,  8.62,  9.03 a.u.
   NGXF,Y,Z  is equivalent  to a cutoff of  17.25, 17.25, 18.07 a.u.

 SYSTEM =  x                                       
 POSCAR =  Ag  O  C  N  H                          

 Startparameter for this run:
   NWRITE =      0    write-flag & timer
   PREC   = normal    normal or accurate (medium, high low for compatibility)
   ISTART =      0    job   : 0-new  1-cont  2-samecut
   ICHARG =      2    charge: 1-file 2-atom 10-const
   ISPIN  =      1    spin polarized calculation?
   LNONCOLLINEAR =      F non collinear calculations
   LSORBIT =      F    spin-orbit coupling
   INIWAV =      1    electr: 0-lowe 1-rand  2-diag
   LASPH  =      F    aspherical Exc in radial PAW
   METAGGA=      F    non-selfconsistent MetaGGA calc.

 Electronic Relaxation 1
   ENCUT  =  450.0 eV  33.07 Ry    5.75 a.u.  30.01 30.01 38.20*2*pi/ulx,y,z
   ENINI  =  450.0     initial cutoff
   ENAUG  =  644.9 eV  augmentation charge cutoff
   NELM   =     50;   NELMIN=  5; NELMDL= -7     # of ELM steps 
   EDIFF  = 0.1E-04   stopping-criterion for ELM
   LREAL  =      T    real-space projection
   NLSPLINE    = F    spline interpolate recip. space projectors
   LCOMPAT=      F    compatible to vasp.4.4
   GGA_COMPAT  = T    GGA compatible to vasp.4.4-vasp.4.6
   LMAXPAW     = -100 max onsite density
   LMAXMIX     =    2 max onsite mixed and CHGCAR
   VOSKOWN=      0    Vosko Wilk Nusair interpolation
   ROPT   =   -0.00050  -0.00050  -0.00050  -0.00050
   ROPT   =   -0.00050
 Ionic relaxation
   EDIFFG = -.2E-01   stopping-criterion for IOM
   NSW    =    300    number of steps for IOM
   NBLOCK =      1;   KBLOCK =    300    inner block; outer block 
   IBRION =      2    ionic relax: 0-MD 1-quasi-New 2-CG
   NFREE  =      2    steps in history (QN), initial steepest desc. (CG)
   ISIF   =      2    stress and relaxation
   IWAVPR =     11    prediction:  0-non 1-charg 2-wave 3-comb
   ISYM   =      2    0-nonsym 1-usesym 2-fastsym
   LCORR  =      T    Harris-Foulkes like correction to forces

   POTIM  = 0.1500    time-step for ionic-motion
   TEIN   =    0.0    initial temperature
   TEBEG  =    0.0;   TEEND  =   0.0 temperature during run
   SMASS  =  -3.00    Nose mass-parameter (am)
   estimated Nose-frequenzy (Omega)   =  0.10E-29 period in steps =****** mass=  -0.688E-26a.u.
   SCALEE = 1.0000    scale energy and forces
   NPACO  =    256;   APACO  = 16.0  distance and # of slots for P.C.
   PSTRESS=    0.0 pullay stress

  Mass of Ions in am
   POMASS = 107.87 16.00 12.01 14.00  1.00
  Ionic Valenz
   ZVAL   =  11.00  6.00  4.00  5.00  1.00
  Atomic Wigner-Seitz radii
   RWIGS  =  -1.00 -1.00 -1.00 -1.00 -1.00
  virtual crystal weights 
   VCA    =   1.00  1.00  1.00  1.00  1.00
   NELECT =    1676.0000    total number of electrons
   NUPDOWN=      -1.0000    fix difference up-down

 DOS related values:
   EMIN   =  10.00;   EMAX   =-10.00  energy-range for DOS
   EFERMI =   0.00
   ISMEAR =     0;   SIGMA  =   0.03  broadening in eV -4-tet -1-fermi 0-gaus

 Electronic relaxation 2 (details)
   IALGO  =     68    algorithm
   LDIAG  =      T    sub-space diagonalisation (order eigenvalues)
   LSUBROT=      F    optimize rotation matrix (better conditioning)
   TURBO    =      0    0=normal 1=particle mesh
   IRESTART =      0    0=no restart 2=restart with 2 vectors
   NREBOOT  =      0    no. of reboots
   NMIN     =      0    reboot dimension
   EREF     =   0.00    reference energy to select bands
   IMIX   =      4    mixing-type and parameters
     AMIX     =   0.40;   BMIX     =  1.00
     AMIX_MAG =   1.60;   BMIX_MAG =  1.00
     AMIN     =   0.10
     WC   =   100.;   INIMIX=   1;  MIXPRE=   1;  MAXMIX= -45

 Intra band minimization:
   WEIMIN = 0.0010     energy-eigenvalue tresh-hold
   EBREAK =  0.25E-08  absolut break condition
   DEPER  =   0.30     relativ break condition  

   TIME   =   0.40     timestep for ELM

  volume/ion in A,a.u.               =      32.90       222.01
  Fermi-wavevector in a.u.,A,eV,Ry     =   1.084992  2.050338 16.016889  1.177208
  Thomas-Fermi vector in A             =   2.221095
 
 Write flags
   LWAVE        =      F    write WAVECAR
   LDOWNSAMPLE  =      F    k-point downsampling of WAVECAR
   LCHARG       =      F    write CHGCAR
   LVTOT        =      F    write LOCPOT, total local potential
   LVHAR        =      F    write LOCPOT, Hartree potential only
   LELF         =      F    write electronic localiz. function (ELF)
   LORBIT       =      0    0 simple, 1 ext, 2 COOP (PROOUT), +10 PAW based schemes


 Dipole corrections
   LMONO  =      F    monopole corrections only (constant potential shift)
   LDIPOL =      T    correct potential (dipole corrections)
   IDIPOL =      3    1-x, 2-y, 3-z, 4-all directions 
   EPSILON=  1.0000000 bulk dielectric constant

 Exchange correlation treatment:
   GGA     =    PE    GGA type
   LEXCH   =     8    internal setting for exchange type
   VOSKOWN=      0    Vosko Wilk Nusair interpolation
   LHFCALC =     F    Hartree Fock is set to
   LHFONE  =     F    Hartree Fock one center treatment
   AEXX    =    0.0000 exact exchange contribution

 Linear response parameters
   LEPSILON=     F    determine dielectric tensor
   LRPA    =     F    only Hartree local field effects (RPA)
   LNABLA  =     F    use nabla operator in PAW spheres
   LVEL    =     F    velocity operator in full k-point grid
   LINTERFAST=   F  fast interpolation
   KINTER  =     0    interpolate to denser k-point grid
   CSHIFT  =0.1000    complex shift for real part using Kramers Kronig
   OMEGAMAX=  -1.0    maximum frequency
   DEG_THRESHOLD= 0.2000000E-02 threshold for treating states as degnerate
   RTIME   =   -0.100 relaxation time in fs
  (WPLASMAI=    0.000 imaginary part of plasma frequency in eV, 0.658/RTIME)
   DFIELD  = 0.0000000 0.0000000 0.0000000 field for delta impulse in time
 
 Orbital magnetization related:
   ORBITALMAG=     F  switch on orbital magnetization
   LCHIMAG   =     F  perturbation theory with respect to B field
   DQ        =  0.001000  dq finite difference perturbation B field
   LLRAUG    =     F  two centre corrections for induced B field



--------------------------------------------------------------------------------------------------------


 conjugate gradient relaxation of ions
   using selective dynamics as specified on POSCAR
 charge density and potential will be updated during run
 non-spin polarized calculation
 RMM-DIIS sequential band-by-band and
  variant of blocked Davidson during initial phase
 perform sub-space diagonalisation
    before iterative eigenvector-optimisation
 modified Broyden-mixing scheme, WC =      100.0
 initial mixing is a Kerker type mixing with AMIX =  0.4000 and BMIX =      1.0000
 Hartree-type preconditioning will be used
 using additional bands          170
 real space projection scheme for non local part
 use partial core corrections
 calculate Harris-corrections to forces 
   (improved forces if not selfconsistent)
 use gradient corrections 
 use of overlap-Matrix (Vanderbilt PP)
 Gauss-broadening in eV      SIGMA  =   0.03


--------------------------------------------------------------------------------------------------------


  energy-cutoff  :      450.00
  volume of cell :     5757.30
      direct lattice vectors                 reciprocal lattice vectors
    17.350500584  0.000000000  0.000000000     0.057635225  0.033275713  0.000000000
    -8.675250292 15.025974274  0.000000000     0.000000000  0.066551425  0.000000000
     0.000000000  0.000000000 22.083299637     0.000000000  0.000000000  0.045283088

  length of vectors
    17.350500584 17.350500584 22.083299637     0.066551425  0.066551425  0.045283088


 
 k-points in units of 2pi/SCALE and weight: K-POINTS                                
   0.00000000  0.00000000  0.00000000       0.111
   0.01921174  0.01109190  0.00000000       0.222
   0.00000000  0.02218381  0.00000000       0.222
   0.01921174  0.03327571  0.00000000       0.222
  -0.01921174  0.01109190  0.00000000       0.222
 
 k-points in reciprocal lattice and weights: K-POINTS                                
   0.00000000  0.00000000  0.00000000       0.111
   0.33333333  0.00000000  0.00000000       0.222
   0.00000000  0.33333333  0.00000000       0.222
   0.33333333  0.33333333  0.00000000       0.222
  -0.33333333  0.33333333  0.00000000       0.222
 
 position of ions in fractional coordinates (direct lattice) 
   0.00000000  0.00000000  0.00000000
   1.00000000  0.16666667  0.00000000
   0.16666667  0.16666667  0.00000000
   0.16666667  0.00000000  0.00000000
   0.00000000  0.33333333  0.00000000
   0.00000000  0.50000000  0.00000000
   0.16666667  0.50000000  0.00000000
   0.16666667  0.33333333  0.00000000
   0.00000000  0.66666667  0.00000000
   1.00000000  0.83333333  0.00000000
   0.16666667  0.83333333  0.00000000
   0.16666667  0.66666667  0.00000000
   0.33333333  0.00000000  0.00000000
   0.33333333  0.16666667  0.00000000
   0.50000000  0.16666667  0.00000000
   0.50000000  0.00000000  0.00000000
   0.33333333  0.33333333  0.00000000
   0.33333333  0.50000000  0.00000000
   0.50000000  0.50000000  0.00000000
   0.50000000  0.33333333  0.00000000
   0.33333333  0.66666667  0.00000000
   0.33333333  0.83333333  0.00000000
   0.50000000  0.83333333  0.00000000
   0.50000000  0.66666667  0.00000000
   0.66666667  0.00000000  0.00000000
   0.66666667  0.16666667  0.00000000
   0.83333333  0.16666667  0.00000000
   0.83333333  0.00000000  0.00000000
   0.66666667  0.33333333  0.00000000
   0.66666667  0.50000000  0.00000000
   0.83333333  0.50000000  0.00000000
   0.83333333  0.33333333  0.00000000
   0.66666667  0.66666667  0.00000000
   0.66666667  0.83333333  0.00000000
   0.83333333  0.83333333  0.00000000
   0.83333333  0.66666667  0.00000000
   0.22222334  0.11111000  0.10692000
   0.22222334  0.27777666  0.10692000
   0.05555666  0.27777666  0.10692000
   0.05555666  0.11111000  0.10692000
   0.22222334  0.44444333  0.10692000
   0.22222334  0.61110999  0.10692000
   0.05555666  0.61110999  0.10692000
   0.05555666  0.44444333  0.10692000
   0.22222334  0.77777667  0.10692000
   0.22222334  0.94444333  0.10692000
   0.05555666  0.94444333  0.10692000
   0.05555666  0.77777667  0.10692000
   0.55555667  0.11111000  0.10692000
   0.55555667  0.27777666  0.10692000
   0.38889000  0.27777666  0.10692000
   0.38889000  0.11111000  0.10692000
   0.55555667  0.44444333  0.10692000
   0.55555667  0.61110999  0.10692000
   0.38889000  0.61110999  0.10692000
   0.38889000  0.44444333  0.10692000
   0.55555667  0.77777667  0.10692000
   0.55555667  0.94444333  0.10692000
   0.38889000  0.94444333  0.10692000
   0.38889000  0.77777667  0.10692000
   0.88889001  0.11111000  0.10692000
   0.88889001  0.27777666  0.10692000
   0.72222333  0.27777666  0.10692000
   0.72222333  0.11111000  0.10692000
   0.88889001  0.44444333  0.10692000
   0.88889001  0.61110999  0.10692000
   0.72222333  0.61110999  0.10692000
   0.72222333  0.44444333  0.10692000
   0.88889001  0.77777667  0.10692000
   0.88889001  0.94444333  0.10692000
   0.72222333  0.94444333  0.10692000
   0.72222333  0.77777667  0.10692000
   0.11097642  0.22236489  0.21452292
   0.11084079  0.05501642  0.21429169
   0.27779473  0.05528789  0.21502423
   0.27769132  0.22152829  0.21386289
   0.11111513  0.55557516  0.21501351
   0.11094986  0.38884810  0.21542349
   0.27741830  0.38896041  0.21469350
   0.27777419  0.55556887  0.21513796
   0.11122335  0.88879335  0.21480486
   0.11123796  0.72224426  0.21504155
   0.27771495  0.72227280  0.21494565
   0.27779716  0.88879647  0.21538714
   0.44447712  0.22185633  0.21448887
   0.44448403  0.05551074  0.21534177
   0.61110087  0.05558708  0.21521432
   0.61114545  0.22211883  0.21518547
   0.44436214  0.55529867  0.21491536
   0.44496455  0.38897957  0.21391700
   0.61157286  0.38891290  0.21467391
   0.61150080  0.55556204  0.21454013
   0.44435557  0.88897830  0.21502707
   0.44427285  0.72245644  0.21439432
   0.61116197  0.72253683  0.21382583
   0.61112125  0.88919690  0.21459896
   0.77778849  0.22215564  0.21535383
   0.77783658  0.05561900  0.21530582
   0.94442103  0.05556778  0.21504984
   0.94439128  0.22222137  0.21522031
   0.77788154  0.55547447  0.21453689
   0.77788163  0.38876907  0.21494463
   0.94445469  0.38888897  0.21517313
   0.94454933  0.55553831  0.21481544
   0.77812488  0.88928458  0.21459330
   0.77819986  0.72277000  0.21392475
   0.94503991  0.72250786  0.21424648
   0.94444800  0.88886967  0.21478847
   0.00009487  0.99992555  0.32392981
   0.99981379  0.16655144  0.32396150
   0.16631084  0.16634027  0.32161971
   0.16668229  0.99982205  0.32386555
   0.99996811  0.33335624  0.32460065
   0.00020604  0.50023738  0.32439840
   0.16656396  0.50014746  0.32402235
   0.16658214  0.33307073  0.32456864
   0.00019549  0.66684647  0.32389065
   0.00019391  0.83345535  0.32391174
   0.16671819  0.83332277  0.32463045
   0.16677286  0.66687247  0.32451209
   0.33333740  0.99997828  0.32464409
   0.33342884  0.16635802  0.32404257
   0.50000942  0.16651668  0.32455236
   0.49999227  0.99995934  0.32463844
   0.33341094  0.33244993  0.32022494
   0.33321179  0.49977160  0.32397731
   0.50127113  0.49971028  0.32243980
   0.50048732  0.33270277  0.32243192
   0.33333309  0.66685160  0.32382277
   0.33343663  0.83334265  0.32462148
   0.50008093  0.83346869  0.32383582
   0.50017182  0.66692596  0.32172024
   0.66655864  0.99995849  0.32459480
   0.66672861  0.16664358  0.32460371
   0.83331480  0.16664248  0.32463423
   0.83336407  0.00001413  0.32461397
   0.66703198  0.33316460  0.32410812
   0.66751730  0.49989449  0.32410179
   0.83388754  0.50019603  0.32381328
   0.83354128  0.33342048  0.32449361
   0.66762768  0.66775485  0.32148660
   0.66720486  0.83390519  0.32282803
   0.83368492  0.83382038  0.32408500
   0.83390563  0.66736533  0.32154806
   0.68755255  0.53154492  0.46915854
   0.78612065  0.68151151  0.47650557
   0.22102160  0.29857190  0.47460893
   0.27956844  0.20545047  0.47312962
   0.54643790  0.73092477  0.47680532
   0.50037437  0.63153806  0.46943454
   0.40751991  0.58023346  0.46672671
   0.36139620  0.48716508  0.46360069
   0.41087651  0.44328439  0.46318751
   0.50441763  0.49278043  0.46285072
   0.54904205  0.58592923  0.46702876
   0.70319837  0.60863096  0.47157916
   0.85795302  0.66222397  0.48006303
   0.28462753  0.28661654  0.47052201
   0.19085424  0.13109871  0.48156894
   0.64205292  0.63717151  0.46950076
   0.37259193  0.35053476  0.46237104
   0.36938955  0.61467712  0.46788449
   0.28911077  0.44924376  0.46376494
   0.54326374  0.45923167  0.46251286
   0.66875667  0.70433357  0.47067278
   0.41557888  0.32685488  0.45917292
   0.58222663  0.75236492  0.52033520
   0.49810231  0.75416429  0.47508383
   0.59535269  0.76627591  0.44033947
   0.91877369  0.72582853  0.47182991
   0.85923208  0.63598290  0.52515240
   0.85015209  0.61329267  0.44534863
   0.16447857  0.13564165  0.52584605
   0.14616692  0.12965764  0.44563512
   0.19787069  0.07189013  0.47881831
 
 position of ions in cartesian coordinates  (Angst):
   0.00000000  0.00000000  0.00000000
  15.90462553  2.50432905  0.00000000
   1.44587505  2.50432905  0.00000000
   2.89175010  0.00000000  0.00000000
  -2.89175010  5.00865809  0.00000000
  -4.33762515  7.51298714  0.00000000
  -1.44587505  7.51298714  0.00000000
  -0.00000000  5.00865809  0.00000000
  -5.78350019 10.01731618  0.00000000
  10.12112534 12.52164523  0.00000000
  -4.33762515 12.52164523  0.00000000
  -2.89175010 10.01731618  0.00000000
   5.78350019  0.00000000  0.00000000
   4.33762515  2.50432905  0.00000000
   7.22937524  2.50432905  0.00000000
   8.67525029  0.00000000  0.00000000
   2.89175010  5.00865809  0.00000000
   1.44587505  7.51298714  0.00000000
   4.33762515  7.51298714  0.00000000
   5.78350019  5.00865809  0.00000000
  -0.00000000 10.01731618  0.00000000
  -1.44587505 12.52164523  0.00000000
   1.44587505 12.52164523  0.00000000
   2.89175010 10.01731618  0.00000000
  11.56700039  0.00000000  0.00000000
  10.12112534  2.50432905  0.00000000
  13.01287544  2.50432905  0.00000000
  14.45875049  0.00000000  0.00000000
   8.67525029  5.00865809  0.00000000
   7.22937524  7.51298714  0.00000000
  10.12112534  7.51298714  0.00000000
  11.56700039  5.00865809  0.00000000
   5.78350019 10.01731618  0.00000000
   4.33762515 12.52164523  0.00000000
   7.22937524 12.52164523  0.00000000
   8.67525029 10.01731618  0.00000000
   2.89177914  1.66953603  2.36114631
   1.44590417  4.17386493  2.36114631
  -1.44584609  4.17386493  2.36114631
   0.00002887  1.66953603  2.36114631
   0.00002904  6.67819412  2.36114631
  -1.44584592  9.18252302  2.36114631
  -4.33759619  9.18252302  2.36114631
  -2.89172122  6.67819412  2.36114631
  -2.89172106 11.68685221  2.36114631
  -4.33759602 14.19118111  2.36114631
  -7.22934629 14.19118111  2.36114631
  -5.78347132 11.68685221  2.36114631
   8.67527933  1.66953603  2.36114631
   7.22940437  4.17386493  2.36114631
   4.33765410  4.17386493  2.36114631
   5.78352907  1.66953603  2.36114631
   5.78352924  6.67819412  2.36114631
   4.33765427  9.18252302  2.36114631
   1.44590401  9.18252302  2.36114631
   2.89177897  6.67819412  2.36114631
   2.89177914 11.68685221  2.36114631
   1.44590417 14.19118111  2.36114631
  -1.44584609 14.19118111  2.36114631
   0.00002887 11.68685221  2.36114631
  14.45877953  1.66953603  2.36114631
  13.01290456  4.17386493  2.36114631
  10.12115430  4.17386493  2.36114631
  11.56702926  1.66953603  2.36114631
  11.56702943  6.67819412  2.36114631
  10.12115447  9.18252302  2.36114631
   7.22940420  9.18252302  2.36114631
   8.67527917  6.67819412  2.36114631
   8.67527933 11.68685221  2.36114631
   7.22940437 14.19118111  2.36114631
   4.33765410 14.19118111  2.36114631
   5.78352907 11.68685221  2.36114631
  -0.00357474  3.34124915  4.73737396
   1.44586194  0.82667537  4.73226756
   4.34024126  0.83075445  4.74844441
   2.89627007  3.32867844  4.72279831
  -2.89185042  8.34805810  4.74820767
  -1.44831889  5.84282147  4.75726149
   1.43901751  5.84450913  4.74114088
  -0.00017766  8.34796352  4.75095597
  -5.78072395 13.35498606  4.74360000
  -4.33561544 10.85242360  4.74882688
  -1.44740398 10.85285258  4.74670918
  -2.89061203 13.35503292  4.75645882
   5.78724128  3.33360756  4.73662202
   7.23045076  0.83410300  4.75545685
  10.12067409  0.83525005  4.75264235
   8.67674305  3.33755178  4.75200513
   2.89255070  8.34390351  4.74604023
   4.34586249  5.84479708  4.72399331
   7.23717846  5.84379525  4.74070822
   5.79020526  8.34786094  4.73775397
  -0.00231773 13.35776504  4.74850718
   1.44086588 10.85561195  4.73453402
   4.33577829 10.85681977  4.72197984
   2.88925390 13.36104980  4.73905309
  11.56776382  3.33810496  4.75572314
  13.01334526  0.83572963  4.75466283
  15.90411315  0.83496005  4.74900996
  14.45783546  3.33909257  4.75277466
   8.67775403  8.34654505  4.73768248
  10.12396670  5.84163397  4.74668664
  13.01305250  5.84343565  4.75173263
  11.56896976  8.34750440  4.74383362
   5.78608979 13.36236727  4.73892820
   7.23194644 10.86032340  4.72416441
  10.12897894 10.85638455  4.73126923
   8.67547859 13.35613287  4.74323812
  -8.67295839 15.02485566  7.15343907
  15.90239428  2.50259766  7.15413895
   1.44253283  2.49942462  7.10242451
  -5.78168540 15.02330044  7.15202007
  14.45799845  5.00900229  7.16825340
  -4.33610946  7.51655393  7.16378700
  -1.44893629  7.51520292  7.15548259
   0.00081154  5.00471223  7.16754660
  -5.78166828 10.02001796  7.15257438
  -7.22706927 12.52347867  7.15304003
  -4.33663954 12.52148651  7.16891152
  -2.89169295 10.02040863  7.16629771
  -2.89149119 15.02564797  7.16921276
   4.34195981  2.49969137  7.15592926
   7.23083980  2.50207542  7.16718712
   0.00021859 15.02536339  7.16908797
   2.90076033  4.99538412  7.07162322
   1.44574759  7.50955523  7.15448800
   4.36219333  7.50863375  7.12053477
   5.79742569  4.99918333  7.12036070
  -0.00160849 10.02009496  7.15107521
  -1.44416372 12.52178525  7.16871342
   1.44610506 12.52367907  7.15136344
   2.89248193 10.02121224  7.10464440
   2.89023586 15.02535060  7.16812433
  10.12240041  2.50398208  7.16832100
  13.01276360  2.50396567  7.16899506
  14.45916123  0.00021237  7.16854752
   8.68305249  5.00612266  7.15737667
   7.24504945  7.51140181  7.15723689
  10.12904049  7.51593272  7.15086567
  11.56985231  5.00996752  7.16588955
   5.79073412 10.03366712  7.09948489
   4.34200210 12.53023787  7.12910814
   7.23125023 12.52896353  7.15686627
   8.67911883 10.02781427  7.10084205
   7.31809566  7.98698036 10.36056866
   7.72730381 10.24037445 10.52281529
   1.24464951  4.48633369 10.48093124
   3.06831815  3.08709347 10.44826315
   3.14001582 10.98285682 10.52943476
   3.20299516  9.48947458 10.36666362
   2.03700400  8.71857309 10.30686578
   2.04412598  7.32012990 10.23783301
   3.28331021  6.66077977 10.22870863
   4.47690484  7.40450601 10.22127105
   4.44307165  8.80415749 10.31353597
   6.92081782  9.14527321 10.41402389
   9.14095578  9.95056030 10.60137568
   2.45195988  4.30669273 10.39067858
   2.17410248  1.96988580 10.63463115
   5.61231729  9.57412276 10.36812592
   3.42367965  5.26712626 10.21067828
   1.07661579  9.23612256 10.33243335
   1.11891451  6.75032524 10.24146018
   5.44194812  6.90040319 10.21381015
   5.49299299 10.58329813 10.39400801
   4.37495364  4.91131301 10.14005309
   3.57496961 11.30501587 11.49071804
   2.09976038 11.33205318 10.49141858
   3.68203177 11.51404216  9.72414848
   9.64443915 10.90628089 10.41956122
   9.39079588  9.55626266 11.59709781
   9.43009691  9.21531982  9.83476719
   1.67706026  2.03814793 11.61241582
   1.41125670  1.94823242  9.84109399
   2.80949057  1.08021926 10.57388819
 


--------------------------------------------------------------------------------------------------------


 k-point  1 :   0.0000 0.0000 0.0000  plane waves:  124805
 k-point  2 :   0.3333 0.0000 0.0000  plane waves:  124786
 k-point  3 :   0.0000 0.3333 0.0000  plane waves:  124786
 k-point  4 :   0.3333 0.3333 0.0000  plane waves:  124836
 k-point  5 :  -0.3333 0.3333 0.0000  plane waves:  124786

 maximum and minimum number of plane-waves per node :    124836   124786

 maximum number of plane-waves:    124836
 maximum index in each direction: 
   IXMAX=   30   IYMAX=   30   IZMAX=   38
   IXMIN=  -30   IYMIN=  -30   IZMIN=  -38


 serial   3D FFT for wavefunctions
 parallel 3D FFT for charge:
    minimum data exchange during FFTs selected (reduces bandwidth)


 total amount of memory used by VASP MPI-rank0   364254. kBytes
=======================================================================

   base      :      30000. kBytes
   nonlr-proj:      54401. kBytes
   fftplans  :       9705. kBytes
   grid      :      52925. kBytes
   one-center:       2721. kBytes
   wavefun   :     214502. kBytes
 
     INWAV:  cpu time    0.0000: real time    0.0004
 Broyden mixing: mesh for mixing (old mesh)
   NGX = 61   NGY = 61   NGZ = 77
  (NGX  =180   NGY  =180   NGZ  =240)
  gives a total of 286517 points

 initial charge density was supplied:
 charge density of overlapping atoms calculated
 number of electron    1676.0000000 magnetization 
 keeping initial charge density in first step


--------------------------------------------------------------------------------------------------------


 Maximum index for non-local projection operator         2042
 Maximum index for augmentation-charges          451 (set IRDMAX)


--------------------------------------------------------------------------------------------------------


 First call to EWALD:  gamma=   0.099
 Maximum number of real-space cells 3x 3x 2
 Maximum number of reciprocal cells 3x 3x 3

    FEWALD:  cpu time    0.0066: real time    0.0066


--------------------------------------- Iteration      1(   1)  ---------------------------------------


    POTLOK:  cpu time    0.1634: real time    0.1767
    SETDIJ:  cpu time    0.0145: real time    0.0204
     EDDAV:  cpu time   66.2081: real time   66.2869
       DOS:  cpu time    0.0053: real time    0.0078
    --------------------------------------------
      LOOP:  cpu time   66.3913: real time   66.4918

 eigenvalue-minimisations  : 10080
 total energy-change (2. order) : 0.1028322E+05  (-0.7392488E+05)
 number of electron    1676.0000000 magnetization 
 augmentation part     1676.0000000 magnetization 

 DIPCOR: dipole corrections for dipol
 direction  3 min pos   168,
 dipolmoment           0.000000      0.000000     -0.003268 electrons x Angstroem
 Tr[quadrupol]    -87540.071648

 energy correction for charged system         0.000000 eV
 dipol+quadrupol energy correction           -0.000000 eV
 added-field ion interaction         -0.067099 eV  (added to PSCEN)


 Free energy of the ion-electron system (eV)
  ---------------------------------------------------
  alpha Z        PSCENC =      3356.58807312
  Ewald energy   TEWEN  =    374071.16894497
  -Hartree energ DENC   =   -532148.11233158
  -exchange      EXHF   =         0.00000000
  -V(xc)+E(xc)   XCENC  =     -1203.21810862
  PAW double counting   =    147518.23176809  -140893.94215799
  entropy T*S    EENTRO =        -0.02470288
  eigenvalues    EBANDS =      6165.02808356
  atomic energy  EATOM  =    153417.50127746
  Solvation  Ediel_sol  =         0.00000000
  ---------------------------------------------------
  free energy    TOTEN  =     10283.22084613 eV

  energy without entropy =    10283.24554902  energy(sigma->0) =    10283.23319757


--------------------------------------------------------------------------------------------------------




--------------------------------------- Iteration      1(   2)  ---------------------------------------


     EDDAV:  cpu time   69.6340: real time   69.6729
       DOS:  cpu time    0.0023: real time    0.0023
    --------------------------------------------
      LOOP:  cpu time   69.6363: real time   69.6752

 eigenvalue-minimisations  : 10800
 total energy-change (2. order) :-0.1035764E+05  (-0.9810296E+04)
 number of electron    1676.0000000 magnetization 
 augmentation part     1676.0000000 magnetization 

 DIPCOR: dipole corrections for dipol
 direction  3 min pos   168,
 dipolmoment           0.000000      0.000000     -0.003268 electrons x Angstroem
 Tr[quadrupol]    -87540.071648

 energy correction for charged system         0.000000 eV
 dipol+quadrupol energy correction           -0.000000 eV
 added-field ion interaction         -0.067099 eV  (added to PSCEN)


 Free energy of the ion-electron system (eV)
  ---------------------------------------------------
  alpha Z        PSCENC =      3356.58807312
  Ewald energy   TEWEN  =    374071.16894497
  -Hartree energ DENC   =   -532148.11233158
  -exchange      EXHF   =         0.00000000
  -V(xc)+E(xc)   XCENC  =     -1203.21810862
  PAW double counting   =    147518.23176809  -140893.94215799
  entropy T*S    EENTRO =        -0.02125415
  eigenvalues    EBANDS =     -4192.61650724
  atomic energy  EATOM  =    153417.50127746
  Solvation  Ediel_sol  =         0.00000000
  ---------------------------------------------------
  free energy    TOTEN  =       -74.42029593 eV

  energy without entropy =      -74.39904178  energy(sigma->0) =      -74.40966886


--------------------------------------------------------------------------------------------------------




--------------------------------------- Iteration      1(   3)  ---------------------------------------


     EDDAV:  cpu time   74.2469: real time   74.2937
       DOS:  cpu time    0.0034: real time    0.0034
    --------------------------------------------
      LOOP:  cpu time   74.2502: real time   74.2970

 eigenvalue-minimisations  : 11712
 total energy-change (2. order) :-0.5251414E+03  (-0.5143786E+03)
 number of electron    1676.0000000 magnetization 
 augmentation part     1676.0000000 magnetization 

 DIPCOR: dipole corrections for dipol
 direction  3 min pos   168,
 dipolmoment           0.000000      0.000000     -0.003268 electrons x Angstroem
 Tr[quadrupol]    -87540.071648

 energy correction for charged system         0.000000 eV
 dipol+quadrupol energy correction           -0.000000 eV
 added-field ion interaction         -0.067099 eV  (added to PSCEN)


 Free energy of the ion-electron system (eV)
  ---------------------------------------------------
  alpha Z        PSCENC =      3356.58807312
  Ewald energy   TEWEN  =    374071.16894497
  -Hartree energ DENC   =   -532148.11233158
  -exchange      EXHF   =         0.00000000
  -V(xc)+E(xc)   XCENC  =     -1203.21810862
  PAW double counting   =    147518.23176809  -140893.94215799
  entropy T*S    EENTRO =        -0.02437146
  eigenvalues    EBANDS =     -4717.75478947
  atomic energy  EATOM  =    153417.50127746
  Solvation  Ediel_sol  =         0.00000000
  ---------------------------------------------------
  free energy    TOTEN  =      -599.56169547 eV

  energy without entropy =     -599.53732401  energy(sigma->0) =     -599.54950974


--------------------------------------------------------------------------------------------------------




--------------------------------------- Iteration      1(   4)  ---------------------------------------


     EDDAV:  cpu time   77.4247: real time   77.4811
       DOS:  cpu time    0.0035: real time    0.0035
    --------------------------------------------
      LOOP:  cpu time   77.4282: real time   77.4846

 eigenvalue-minimisations  : 11328
 total energy-change (2. order) :-0.1303334E+02  (-0.1289688E+02)
 number of electron    1676.0000000 magnetization 
 augmentation part     1676.0000000 magnetization 

 DIPCOR: dipole corrections for dipol
 direction  3 min pos   168,
 dipolmoment           0.000000      0.000000     -0.003268 electrons x Angstroem
 Tr[quadrupol]    -87540.071648

 energy correction for charged system         0.000000 eV
 dipol+quadrupol energy correction           -0.000000 eV
 added-field ion interaction         -0.067099 eV  (added to PSCEN)


 Free energy of the ion-electron system (eV)
  ---------------------------------------------------
  alpha Z        PSCENC =      3356.58807312
  Ewald energy   TEWEN  =    374071.16894497
  -Hartree energ DENC   =   -532148.11233158
  -exchange      EXHF   =         0.00000000
  -V(xc)+E(xc)   XCENC  =     -1203.21810862
  PAW double counting   =    147518.23176809  -140893.94215799
  entropy T*S    EENTRO =        -0.03028934
  eigenvalues    EBANDS =     -4730.78221623
  atomic energy  EATOM  =    153417.50127746
  Solvation  Ediel_sol  =         0.00000000
  ---------------------------------------------------
  free energy    TOTEN  =      -612.59504012 eV

  energy without entropy =     -612.56475077  energy(sigma->0) =     -612.57989545


--------------------------------------------------------------------------------------------------------




--------------------------------------- Iteration      1(   5)  ---------------------------------------


     EDDAV:  cpu time   75.1246: real time   75.1651
       DOS:  cpu time    0.0037: real time    0.0037
    --------------------------------------------
      LOOP:  cpu time   75.1283: real time   75.1687

 eigenvalue-minimisations  : 11856
 total energy-change (2. order) :-0.4005312E+00  (-0.3998777E+00)
 number of electron    1676.0000000 magnetization 
 augmentation part     1676.0000000 magnetization 

 DIPCOR: dipole corrections for dipol
 direction  3 min pos   168,
 dipolmoment           0.000000      0.000000     -0.003268 electrons x Angstroem
 Tr[quadrupol]    -87540.071648

 energy correction for charged system         0.000000 eV
 dipol+quadrupol energy correction           -0.000000 eV
 added-field ion interaction         -0.067099 eV  (added to PSCEN)


 Free energy of the ion-electron system (eV)
  ---------------------------------------------------
  alpha Z        PSCENC =      3356.58807312
  Ewald energy   TEWEN  =    374071.16894497
  -Hartree energ DENC   =   -532148.11233158
  -exchange      EXHF   =         0.00000000
  -V(xc)+E(xc)   XCENC  =     -1203.21810862
  PAW double counting   =    147518.23176809  -140893.94215799
  entropy T*S    EENTRO =        -0.03024725
  eigenvalues    EBANDS =     -4731.18278954
  atomic energy  EATOM  =    153417.50127746
  Solvation  Ediel_sol  =         0.00000000
  ---------------------------------------------------
  free energy    TOTEN  =      -612.99557133 eV

  energy without entropy =     -612.96532408  energy(sigma->0) =     -612.98044771


--------------------------------------------------------------------------------------------------------




--------------------------------------- Iteration      1(   6)  ---------------------------------------


     EDDAV:  cpu time   81.5835: real time   81.6309
       DOS:  cpu time    0.0034: real time    0.0034
    --------------------------------------------
      LOOP:  cpu time   81.5868: real time   81.6343

 eigenvalue-minimisations  : 13200
 total energy-change (2. order) :-0.1452614E-01  (-0.1452150E-01)
 number of electron    1676.0000000 magnetization 
 augmentation part     1676.0000000 magnetization 

 DIPCOR: dipole corrections for dipol
 direction  3 min pos   168,
 dipolmoment           0.000000      0.000000     -0.003268 electrons x Angstroem
 Tr[quadrupol]    -87540.071648

 energy correction for charged system         0.000000 eV
 dipol+quadrupol energy correction           -0.000000 eV
 added-field ion interaction         -0.067099 eV  (added to PSCEN)


 Free energy of the ion-electron system (eV)
  ---------------------------------------------------
  alpha Z        PSCENC =      3356.58807312
  Ewald energy   TEWEN  =    374071.16894497
  -Hartree energ DENC   =   -532148.11233158
  -exchange      EXHF   =         0.00000000
  -V(xc)+E(xc)   XCENC  =     -1203.21810862
  PAW double counting   =    147518.23176809  -140893.94215799
  entropy T*S    EENTRO =        -0.03023666
  eigenvalues    EBANDS =     -4731.19732628
  atomic energy  EATOM  =    153417.50127746
  Solvation  Ediel_sol  =         0.00000000
  ---------------------------------------------------
  free energy    TOTEN  =      -613.01009748 eV

  energy without entropy =     -612.97986082  energy(sigma->0) =     -612.99497915


--------------------------------------------------------------------------------------------------------




--------------------------------------- Iteration      1(   7)  ---------------------------------------


     EDDAV:  cpu time   86.2382: real time   86.2838
       DOS:  cpu time    0.0034: real time    0.0034
    CHARGE:  cpu time    2.8751: real time    2.8793
    MIXING:  cpu time    0.0057: real time    0.0073
    --------------------------------------------
      LOOP:  cpu time   89.1224: real time   89.1739

 eigenvalue-minimisations  : 14112
 total energy-change (2. order) :-0.6087563E-03  (-0.6087227E-03)
 number of electron    1676.0000773 magnetization 
 augmentation part      738.9057556 magnetization 

 DIPCOR: dipole corrections for dipol
 direction  3 min pos   168,
 dipolmoment           0.000000      0.000000     -0.003268 electrons x Angstroem
 Tr[quadrupol]    -87540.071648

 energy correction for charged system         0.000000 eV
 dipol+quadrupol energy correction           -0.000000 eV
 added-field ion interaction         -0.067099 eV  (added to PSCEN)


 Broyden mixing:
  rms(total) = 0.60200E+01    rms(broyden)= 0.60189E+01
  rms(prec ) = 0.63461E+01
  weight for this iteration     100.00

 Free energy of the ion-electron system (eV)
  ---------------------------------------------------
  alpha Z        PSCENC =      3356.58807312
  Ewald energy   TEWEN  =    374071.16894497
  -Hartree energ DENC   =   -532148.11233158
  -exchange      EXHF   =         0.00000000
  -V(xc)+E(xc)   XCENC  =     -1203.21810862
  PAW double counting   =    147518.23176809  -140893.94215799
  entropy T*S    EENTRO =        -0.03023609
  eigenvalues    EBANDS =     -4731.19793560
  atomic energy  EATOM  =    153417.50127746
  Solvation  Ediel_sol  =         0.00000000
  ---------------------------------------------------
  free energy    TOTEN  =      -613.01070624 eV

  energy without entropy =     -612.98047014  energy(sigma->0) =     -612.99558819


--------------------------------------------------------------------------------------------------------




--------------------------------------- Iteration      1(   8)  ---------------------------------------


    POTLOK:  cpu time    0.1498: real time    0.1504
    SETDIJ:  cpu time    0.0140: real time    0.0142
    EDDIAG:  cpu time   12.9589: real time   12.9689
  RMM-DIIS:  cpu time   32.1002: real time   32.1231
    ORTHCH:  cpu time    6.0528: real time    6.0551
       DOS:  cpu time    0.0011: real time    0.0011
    CHARGE:  cpu time    2.8696: real time    2.8724
    MIXING:  cpu time    0.0052: real time    0.0133
    --------------------------------------------
      LOOP:  cpu time   54.1516: real time   54.1985

 eigenvalue-minimisations  : 10107
 total energy-change (2. order) : 0.4099877E+02  (-0.1561853E+02)
 number of electron    1676.0000800 magnetization 
 augmentation part      760.1658031 magnetization 

 DIPCOR: dipole corrections for dipol
 direction  3 min pos   172,
 dipolmoment           0.000000      0.000000      2.490943 electrons x Angstroem
 Tr[quadrupol]    -87538.685602

 energy correction for charged system         0.000000 eV
 dipol+quadrupol energy correction           -0.098565 eV
 added-field ion interaction         99.962898 eV  (added to PSCEN)


 Broyden mixing:
  rms(total) = 0.40261E+01    rms(broyden)= 0.40252E+01
  rms(prec ) = 0.43513E+01
  weight for this iteration     100.00

 eigenvalues of (default mixing * dielectric matrix)
  average eigenvalue GAMMA=   1.0690
  1.0690

 Free energy of the ion-electron system (eV)
  ---------------------------------------------------
  alpha Z        PSCENC =      3456.51950556
  Ewald energy   TEWEN  =    374071.16894497
  -Hartree energ DENC   =   -530923.10485217
  -exchange      EXHF   =         0.00000000
  -V(xc)+E(xc)   XCENC  =     -1239.68129910
  PAW double counting   =    154488.62982431  -147994.17398939
  entropy T*S    EENTRO =        -0.01882714
  eigenvalues    EBANDS =     -5848.85251770
  atomic energy  EATOM  =    153417.50127746
  Solvation  Ediel_sol  =         0.00000000
  ---------------------------------------------------
  free energy    TOTEN  =      -572.01193320 eV

  energy without entropy =     -571.99310606  energy(sigma->0) =     -572.00251963


--------------------------------------------------------------------------------------------------------




--------------------------------------- Iteration      1(   9)  ---------------------------------------


    POTLOK:  cpu time    0.1500: real time    0.1507
    SETDIJ:  cpu time    0.0141: real time    0.0141
    EDDIAG:  cpu time   12.8550: real time   12.8638
  RMM-DIIS:  cpu time   30.9410: real time   30.9795
    ORTHCH:  cpu time    4.2276: real time    4.2298
       DOS:  cpu time    0.0011: real time    0.0011
    CHARGE:  cpu time    2.8697: real time    2.8720
    MIXING:  cpu time    0.0047: real time    0.0048
    --------------------------------------------
      LOOP:  cpu time   51.0632: real time   51.1158

 eigenvalue-minimisations  : 10082
 total energy-change (2. order) :-0.3000065E+02  (-0.3659574E+01)
 number of electron    1676.0000777 magnetization 
 augmentation part      759.6658586 magnetization 

 DIPCOR: dipole corrections for dipol
 direction  3 min pos   169,
 dipolmoment           0.000000      0.000000     -5.365487 electrons x Angstroem
 Tr[quadrupol]    -87540.486783

 energy correction for charged system         0.000000 eV
 dipol+quadrupol energy correction           -0.457314 eV
 added-field ion interaction       -136.454430 eV  (added to PSCEN)


 Broyden mixing:
  rms(total) = 0.29418E+01    rms(broyden)= 0.29415E+01
  rms(prec ) = 0.46421E+01
  weight for this iteration     100.00

 eigenvalues of (default mixing * dielectric matrix)
  average eigenvalue GAMMA=   1.1219
  1.5648  0.6790

 Free energy of the ion-electron system (eV)
  ---------------------------------------------------
  alpha Z        PSCENC =      3219.74342911
  Ewald energy   TEWEN  =    374071.16894497
  -Hartree energ DENC   =   -531053.55997687
  -exchange      EXHF   =         0.00000000
  -V(xc)+E(xc)   XCENC  =     -1244.43775753
  PAW double counting   =    158949.19610953  -152535.29008202
  entropy T*S    EENTRO =        -0.01265773
  eigenvalues    EBANDS =     -5426.32186639
  atomic energy  EATOM  =    153417.50127746
  Solvation  Ediel_sol  =         0.00000000
  ---------------------------------------------------
  free energy    TOTEN  =      -602.01257948 eV

  energy without entropy =     -601.99992175  energy(sigma->0) =     -602.00625061


--------------------------------------------------------------------------------------------------------




--------------------------------------- Iteration      1(  10)  ---------------------------------------


    POTLOK:  cpu time    0.1471: real time    0.1476
    SETDIJ:  cpu time    0.0142: real time    0.0142
    EDDIAG:  cpu time   12.9447: real time   12.9526
  RMM-DIIS:  cpu time   31.1406: real time   31.1706
    ORTHCH:  cpu time    4.1700: real time    4.1720
       DOS:  cpu time    0.0011: real time    0.0011
    CHARGE:  cpu time    2.9016: real time    2.9055
    MIXING:  cpu time    0.0049: real time    0.0049
    --------------------------------------------
      LOOP:  cpu time   51.3241: real time   51.3685

 eigenvalue-minimisations  : 10099
 total energy-change (2. order) : 0.2618533E+02  (-0.3556335E+01)
 number of electron    1676.0000797 magnetization 
 augmentation part      761.9268823 magnetization 

 DIPCOR: dipole corrections for dipol
 direction  3 min pos   173,
 dipolmoment           0.000000      0.000000      3.131681 electrons x Angstroem
 Tr[quadrupol]    -87554.220480

 energy correction for charged system         0.000000 eV
 dipol+quadrupol energy correction           -0.155794 eV
 added-field ion interaction        141.019908 eV  (added to PSCEN)


 Broyden mixing:
  rms(total) = 0.20202E+01    rms(broyden)= 0.20201E+01
  rms(prec ) = 0.29189E+01
  weight for this iteration     100.00

 eigenvalues of (default mixing * dielectric matrix)
  average eigenvalue GAMMA=   1.1876
  2.3392  0.9544  0.2691

 Free energy of the ion-electron system (eV)
  ---------------------------------------------------
  alpha Z        PSCENC =      3497.51928673
  Ewald energy   TEWEN  =    374071.16894497
  -Hartree energ DENC   =   -530997.60310165
  -exchange      EXHF   =         0.00000000
  -V(xc)+E(xc)   XCENC  =     -1246.88536188
  PAW double counting   =    161436.64338233  -155069.18034146
  entropy T*S    EENTRO =        -0.02267233
  eigenvalues    EBANDS =     -5684.96866399
  atomic energy  EATOM  =    153417.50127746
  Solvation  Ediel_sol  =         0.00000000
  ---------------------------------------------------
  free energy    TOTEN  =      -575.82724983 eV

[...]
    --------------------------------------------
      LOOP:  cpu time   31.2270: real time   31.2392

 eigenvalue-minimisations  :  1148
 total energy-change (2. order) :-0.1190347E-06  (-0.7179510E-08)
 number of electron    1676.0000794 magnetization 
 augmentation part      761.8711773 magnetization 

 DIPCOR: dipole corrections for dipol
 direction  3 min pos   168,
 dipolmoment           0.000000      0.000000     -0.483217 electrons x Angstroem
 Tr[quadrupol]    -87566.342803

 energy correction for charged system         0.000000 eV
 dipol+quadrupol energy correction           -0.003709 eV
 added-field ion interaction         -9.921559 eV  (added to PSCEN)


 eigenvalues of (default mixing * dielectric matrix)
  average eigenvalue GAMMA=   1.3889
  1.3889

  free energy =  -0.562093446504E+03  energy without entropy=  -0.562068767599E+03


--------------------------------------------------------------------------------------------------------




--------------------------------------- Iteration      3(   3)  ---------------------------------------


    POTLOK:  cpu time    0.1512: real time    0.1525
    SETDIJ:  cpu time    0.0141: real time    0.0141
    EDDIAG:  cpu time   12.7989: real time   12.8043
  RMM-DIIS:  cpu time   10.7458: real time   10.7503
    ORTHCH:  cpu time    4.1603: real time    4.1621
       DOS:  cpu time    0.0011: real time    0.0011
    CHARGE:  cpu time    2.9196: real time    2.9207
    MIXING:  cpu time    0.0046: real time    0.0046
    --------------------------------------------
      LOOP:  cpu time   30.7957: real time   30.8097

 eigenvalue-minimisations  :   977
 total energy-change (2. order) :-0.1080916E-06  (-0.6406198E-09)
 number of electron    1676.0000794 magnetization 
 augmentation part      761.8711777 magnetization 

 DIPCOR: dipole corrections for dipol
 direction  3 min pos   168,
 dipolmoment           0.000000      0.000000     -0.483059 electrons x Angstroem
 Tr[quadrupol]    -87566.343174

 energy correction for charged system         0.000000 eV
 dipol+quadrupol energy correction           -0.003707 eV
 added-field ion interaction         -9.918313 eV  (added to PSCEN)


 eigenvalues of (default mixing * dielectric matrix)
  average eigenvalue GAMMA=   1.0752
  1.7527  0.3976

  free energy =  -0.562093446612E+03  energy without entropy=  -0.562068767094E+03


--------------------------------------------------------------------------------------------------------




--------------------------------------- Iteration      3(   4)  ---------------------------------------


    POTLOK:  cpu time    0.1511: real time    0.1518
    SETDIJ:  cpu time    0.0140: real time    0.0140
    EDDIAG:  cpu time   12.7778: real time   12.7828
  RMM-DIIS:  cpu time   10.6503: real time   10.6547
    ORTHCH:  cpu time    4.1762: real time    4.1777
       DOS:  cpu time    0.0012: real time    0.0012
    CHARGE:  cpu time    3.0170: real time    3.0183
    MIXING:  cpu time    0.0049: real time    0.0049
    --------------------------------------------
      LOOP:  cpu time   30.7925: real time   30.8054

 eigenvalue-minimisations  :   900
 total energy-change (2. order) :-0.4205504E-07  (-0.4050662E-09)
 number of electron    1676.0000794 magnetization 
 augmentation part      761.8711769 magnetization 

 DIPCOR: dipole corrections for dipol
 direction  3 min pos   168,
 dipolmoment           0.000000      0.000000     -0.483146 electrons x Angstroem
 Tr[quadrupol]    -87566.343175

 energy correction for charged system         0.000000 eV
 dipol+quadrupol energy correction           -0.003708 eV
 added-field ion interaction         -9.920109 eV  (added to PSCEN)


 eigenvalues of (default mixing * dielectric matrix)
  average eigenvalue GAMMA=   1.1270
  2.3092  0.8002  0.2717

  free energy =  -0.562093446654E+03  energy without entropy=  -0.562068767598E+03


--------------------------------------------------------------------------------------------------------




--------------------------------------- Iteration      3(   5)  ---------------------------------------


    POTLOK:  cpu time    0.1536: real time    0.1553
    SETDIJ:  cpu time    0.0141: real time    0.0141
    EDDIAG:  cpu time   12.8152: real time   12.8201
  RMM-DIIS:  cpu time   10.8761: real time   10.8805
    ORTHCH:  cpu time    4.3267: real time    4.3285
       DOS:  cpu time    0.0011: real time    0.0011
    --------------------------------------------
      LOOP:  cpu time   28.1868: real time   28.1995

 eigenvalue-minimisations  :  1032
 total energy-change (2. order) :-0.8087954E-07  (-0.1039959E-08)
 number of electron    1676.0000794 magnetization 
 augmentation part      761.8711769 magnetization 

 DIPCOR: dipole corrections for dipol
 direction  3 min pos   168,
 dipolmoment           0.000000      0.000000     -0.483089 electrons x Angstroem
 Tr[quadrupol]    -87566.343455

 energy correction for charged system         0.000000 eV
 dipol+quadrupol energy correction           -0.003707 eV
 added-field ion interaction         -9.918943 eV  (added to PSCEN)


  free energy =  -0.562093446735E+03  energy without entropy=  -0.562068767602E+03


--------------------------------------------------------------------------------------------------------




------------------------ aborting loop because EDIFF is reached ----------------------------------------


    CHARGE:  cpu time    2.8889: real time    2.8907
    FORLOC:  cpu time    0.1269: real time    0.1271
    FORNL :  cpu time   10.5663: real time   10.5724
    STRESS:  cpu time   31.5152: real time   31.5292
    FORCOR:  cpu time    0.2326: real time    0.2326
    FORHAR:  cpu time    0.1508: real time    0.1508
    MIXING:  cpu time    0.0050: real time    0.0050
    OFIELD:  cpu time    0.0001: real time    0.0001

  Number of pair interactions contributing to vdW energy:  713014
  Edisp (eV):  -11.19052
    FORVDW:  cpu time    0.0949: real time    0.0950

  FORCE on cell =-STRESS in cart. coord.  units (eV):
  Direction    XX          YY          ZZ          XY          YZ          ZX
  --------------------------------------------------------------------------------------
  Alpha Z  3356.65517  3356.65517  3356.65517
  Ewald  465088.30174466112.20026************  1462.95275    53.24901     9.55013
  Hartree507710.04968508629.49329************  1351.67853    28.28162    20.80210
  E(xc)   -8727.49321 -8727.36211 -8757.81016     0.05077     0.09361    -0.07470
  Local  ************************************ -2820.86830   -79.33933   -34.12379
  n-local -1429.59272 -1428.96964 -1470.38554     2.95368    -0.35292     0.10687
  augment 13262.63640 13262.68109 13318.09064     0.15309     0.03272     0.19670
  Kinetic 21102.60361 21107.37201 21407.15010     3.13577    -1.84122     3.28598
  Fock        0.00000     0.00000     0.00000     0.00000     0.00000     0.00000
  vdW       -15.15215   -15.35793   -12.23102    -0.06238    -0.05370     0.02964
  -------------------------------------------------------------------------------------
  Total       9.22979     9.35883    10.01367    -0.00608     0.06981    -0.22706
  in kB       2.56853     2.60444     2.78667    -0.00169     0.01943    -0.06319
  external pressure =        2.65 kB  Pullay stress =        0.00 kB



--------------------------------------------------------------------------------------------------------



  FREE ENERGIE OF THE ION-ELECTRON SYSTEM (eV)
  ---------------------------------------------------
  free  energy   TOTEN  =      -573.28396654 eV

  energy  without entropy=     -573.25928741  energy(sigma->0) =     -573.27162698
 
 d Force = 0.3030627E-08[ 0.418E-08, 0.188E-08]  d Energy = 0.6086004E-06-0.606E-06
 d Force =-0.5529339E-03[-0.553E-03,-0.553E-03]  d Ewald  =-0.5529300E-03-0.390E-08


--------------------------------------------------------------------------------------------------------


    POTLOK:  cpu time    0.1665: real time    0.1667


--------------------------------------------------------------------------------------------------------




--------------------------------------------------------------------------------------------------------


    WAVPRE:  cpu time    0.1152: real time    0.1166
    FEWALD:  cpu time    0.0079: real time    0.0079
    ORTHCH:  cpu time    7.6539: real time    7.6566
     LOOP+:  cpu time  226.0726: real time  226.1730


--------------------------------------- Iteration      4(   1)  ---------------------------------------


    POTLOK:  cpu time    0.1509: real time    0.1511
    SETDIJ:  cpu time    0.0141: real time    0.0141
     EDDAV:  cpu time   73.0903: real time   73.1203
       DOS:  cpu time    0.0051: real time    0.0051
    CHARGE:  cpu time    2.8794: real time    2.8806
    MIXING:  cpu time    0.0041: real time    0.0041
    --------------------------------------------
      LOOP:  cpu time   76.1440: real time   76.1753

 eigenvalue-minimisations  : 10176
 total energy-change (2. order) :-0.3528519E-04  (-0.5426421E-03)
 number of electron    1676.0000793 magnetization 
 augmentation part      761.8711607 magnetization 

 DIPCOR: dipole corrections for dipol
 direction  3 min pos   168,
 dipolmoment           0.000000      0.000000     -0.483076 electrons x Angstroem
 Tr[quadrupol]    -87566.274374

 energy correction for charged system         0.000000 eV
 dipol+quadrupol energy correction           -0.003707 eV
 added-field ion interaction         -9.918642 eV  (added to PSCEN)


  free energy =  -0.562093481939E+03  energy without entropy=  -0.562068799050E+03


--------------------------------------------------------------------------------------------------------




--------------------------------------- Iteration      4(   2)  ---------------------------------------


    POTLOK:  cpu time    0.1555: real time    0.1567
    SETDIJ:  cpu time    0.0140: real time    0.0140
    EDDIAG:  cpu time   12.8351: real time   12.8404
  RMM-DIIS:  cpu time   20.3542: real time   20.3660
    ORTHCH:  cpu time    4.1724: real time    4.1739
       DOS:  cpu time    0.0011: real time    0.0011
    CHARGE:  cpu time    2.8914: real time    2.8925
    MIXING:  cpu time    0.0047: real time    0.0047
    --------------------------------------------
      LOOP:  cpu time   40.4286: real time   40.4494

 eigenvalue-minimisations  :  6448
 total energy-change (2. order) :-0.5925947E-05  (-0.7615168E-05)
 number of electron    1676.0000793 magnetization 
 augmentation part      761.8712055 magnetization 

 DIPCOR: dipole corrections for dipol
 direction  3 min pos   168,
 dipolmoment           0.000000      0.000000     -0.483118 electrons x Angstroem
 Tr[quadrupol]    -87566.274324

 energy correction for charged system         0.000000 eV
 dipol+quadrupol energy correction           -0.003708 eV
 added-field ion interaction         -9.919509 eV  (added to PSCEN)


 eigenvalues of (default mixing * dielectric matrix)
  average eigenvalue GAMMA=   0.8595
  0.8595

  free energy =  -0.562093487865E+03  energy without entropy=  -0.562068805783E+03


--------------------------------------------------------------------------------------------------------




--------------------------------------- Iteration      4(   3)  ---------------------------------------


    POTLOK:  cpu time    0.1515: real time    0.1523
    SETDIJ:  cpu time    0.0141: real time    0.0141
    EDDIAG:  cpu time   12.9616: real time   12.9667
  RMM-DIIS:  cpu time   17.6950: real time   17.7021
    ORTHCH:  cpu time    4.1604: real time    4.1619
       DOS:  cpu time    0.0011: real time    0.0011
    CHARGE:  cpu time    2.8888: real time    2.8902
    MIXING:  cpu time    0.0047: real time    0.0047
    --------------------------------------------
      LOOP:  cpu time   37.8773: real time   37.8932

 eigenvalue-minimisations  :  5479
 total energy-change (2. order) : 0.6935152E-06  (-0.4199503E-06)
 number of electron    1676.0000793 magnetization 
 augmentation part      761.8711753 magnetization 

 DIPCOR: dipole corrections for dipol
 direction  3 min pos   168,
 dipolmoment           0.000000      0.000000     -0.482991 electrons x Angstroem
 Tr[quadrupol]    -87566.274546

 energy correction for charged system         0.000000 eV
 dipol+quadrupol energy correction           -0.003706 eV
 added-field ion interaction         -9.916899 eV  (added to PSCEN)


 eigenvalues of (default mixing * dielectric matrix)
  average eigenvalue GAMMA=   1.4325
  0.8992  1.9657

  free energy =  -0.562093487172E+03  energy without entropy=  -0.562068804588E+03


--------------------------------------------------------------------------------------------------------




--------------------------------------- Iteration      4(   4)  ---------------------------------------


    POTLOK:  cpu time    0.1513: real time    0.1522
    SETDIJ:  cpu time    0.0141: real time    0.0141
    EDDIAG:  cpu time   12.9409: real time   12.9480
  RMM-DIIS:  cpu time   17.1377: real time   17.1447
    ORTHCH:  cpu time    4.3168: real time    4.3183
       DOS:  cpu time    0.0011: real time    0.0011
    CHARGE:  cpu time    2.8760: real time    2.8769
    MIXING:  cpu time    0.0052: real time    0.0052
    --------------------------------------------
      LOOP:  cpu time   37.4430: real time   37.4605

 eigenvalue-minimisations  :  5166
 total energy-change (2. order) :-0.2023589E-06  (-0.2285475E-06)
 number of electron    1676.0000793 magnetization 
 augmentation part      761.8711936 magnetization 

 DIPCOR: dipole corrections for dipol
 direction  3 min pos   168,
 dipolmoment           0.000000      0.000000     -0.483633 electrons x Angstroem
 Tr[quadrupol]    -87566.273815

 energy correction for charged system         0.000000 eV
 dipol+quadrupol energy correction           -0.003716 eV
 added-field ion interaction         -9.930084 eV  (added to PSCEN)


 eigenvalues of (default mixing * dielectric matrix)
  average eigenvalue GAMMA=   1.2127
  2.1541  0.7421  0.7421

  free energy =  -0.562093487374E+03  energy without entropy=  -0.562068807753E+03


--------------------------------------------------------------------------------------------------------




--------------------------------------- Iteration      4(   5)  ---------------------------------------


    POTLOK:  cpu time    0.1509: real time    0.1524
    SETDIJ:  cpu time    0.0141: real time    0.0141
    EDDIAG:  cpu time   12.8138: real time   12.8187
  RMM-DIIS:  cpu time   11.5962: real time   11.6009
    ORTHCH:  cpu time    4.1587: real time    4.1600
       DOS:  cpu time    0.0011: real time    0.0011
    --------------------------------------------
      LOOP:  cpu time   28.7348: real time   28.7471

 eigenvalue-minimisations  :  1466
 total energy-change (2. order) : 0.3193272E-06  (-0.2261804E-07)
 number of electron    1676.0000793 magnetization 
 augmentation part      761.8711936 magnetization 

 DIPCOR: dipole corrections for dipol
 direction  3 min pos   168,
 dipolmoment           0.000000      0.000000     -0.482794 electrons x Angstroem
 Tr[quadrupol]    -87566.275062

 energy correction for charged system         0.000000 eV
 dipol+quadrupol energy correction           -0.003703 eV
 added-field ion interaction         -9.912860 eV  (added to PSCEN)


  free energy =  -0.562093487055E+03  energy without entropy=  -0.562068803874E+03


--------------------------------------------------------------------------------------------------------




------------------------ aborting loop because EDIFF is reached ----------------------------------------


    CHARGE:  cpu time    2.8855: real time    2.8866
    FORLOC:  cpu time    0.1253: real time    0.1253
    FORNL :  cpu time   10.5663: real time   10.5744
    STRESS:  cpu time   31.4960: real time   31.5089
    FORCOR:  cpu time    0.2273: real time    0.2273
    FORHAR:  cpu time    0.1508: real time    0.1508
    MIXING:  cpu time    0.0051: real time    0.0051
    OFIELD:  cpu time    0.0001: real time    0.0001

  Number of pair interactions contributing to vdW energy:  713017
  Edisp (eV):  -11.19054
    FORVDW:  cpu time    0.0949: real time    0.0952

  FORCE on cell =-STRESS in cart. coord.  units (eV):
  Direction    XX          YY          ZZ          XY          YZ          ZX
  --------------------------------------------------------------------------------------
  Alpha Z  3356.65517  3356.65517  3356.65517
  Ewald  465088.23859466112.36696************  1462.90387    53.39231     9.50881
  Hartree507709.98397508629.49172************  1351.67812    28.37899    20.78676
  E(xc)   -8727.49273 -8727.36086 -8757.80923     0.05066     0.09389    -0.07486
  Local  ************************************ -2820.83003   -79.57348   -34.07368
  n-local -1429.57777 -1428.97180 -1470.37174     2.95465    -0.34989     0.10986
  augment 13262.63731 13262.68144 13318.09079     0.15337     0.03259     0.19682
  Kinetic 21102.61180 21107.35976 21407.13437     3.13966    -1.84611     3.29005
  Fock        0.00000     0.00000     0.00000     0.00000     0.00000     0.00000
  vdW       -15.15185   -15.35770   -12.23099    -0.06238    -0.05369     0.02960
  -------------------------------------------------------------------------------------
  Total       9.23709     9.36755    10.00872    -0.01208     0.07461    -0.22664
  in kB       2.57056     2.60686     2.78529    -0.00336     0.02076    -0.06307
  external pressure =        2.65 kB  Pullay stress =        0.00 kB



--------------------------------------------------------------------------------------------------------



  FREE ENERGIE OF THE ION-ELECTRON SYSTEM (eV)
  ---------------------------------------------------
  free  energy   TOTEN  =      -573.28403115 eV

  energy  without entropy=     -573.25934797  energy(sigma->0) =     -573.27168956
 
 d Force = 0.5489294E-04[ 0.342E-04, 0.756E-04]  d Energy = 0.6460584E-04-0.971E-05
 d Force =-0.1961701E-01[-0.197E-01,-0.195E-01]  d Ewald  =-0.1961660E-01-0.416E-06


--------------------------------------------------------------------------------------------------------


    POTLOK:  cpu time    0.1680: real time    0.1684


--------------------------------------------------------------------------------------------------------


 Conjugate gradient step on ions:
 trial-energy change:   -0.000065  1 .order   -0.000055   -0.000076   -0.000034
  (g-gl).g = 0.776E-04      g.g   = 0.761E-04  gl.gl    = 0.243E-03
 g(Force)  = 0.761E-04   g(Stress)= 0.000E+00 ortho     =-0.151E-05
 gamma     =   0.31921
 trial     =   0.99944
 opt step  =   1.82583  (harmonic =   1.82583) maximal distance =0.00050908
 next E    =  -573.284036   (d E  =  -0.00007)


--------------------------------------------------------------------------------------------------------


  
 reached required accuracy - stopping structural energy minimisation
     LOOP+:  cpu time  266.4161: real time  266.5395
    4ORBIT:  cpu time    0.0000: real time    0.0000

 total amount of memory used by VASP MPI-rank0   364254. kBytes
=======================================================================

   base      :      30000. kBytes
   nonlr-proj:      54401. kBytes
   fftplans  :       9705. kBytes
   grid      :      52925. kBytes
   one-center:       2721. kBytes
   wavefun   :     214502. kBytes
 
  
  
 General timing and accounting informations for this job:
 ========================================================
  
                  Total CPU time used (sec):     2478.332
                            User time (sec):     2468.185
                          System time (sec):       10.147
                         Elapsed time (sec):     2480.920
  
                   Maximum memory used (kb):      786044.
                   Average memory used (kb):           0.
  
                          Minor page faults:       953753
                          Major page faults:            0
                 Voluntary context switches:         4600
