 vasp.5.4.4.18Apr17-6-g9f103f2a35 (build Jun 30 2017 19:19:18) complex          
  
 executed on         MareNostrum4 date 2022.04.12  10:59:02
 running on   48 total cores
 distrk:  each k-point on   48 cores,    1 groups
 distr:  one band on NCORES_PER_BAND=   1 cores,   48 groups


--------------------------------------------------------------------------------------------------------


 INCAR:
 POTCAR:    PAW_PBE Ag 02Apr2005                  
 POTCAR:    PAW_PBE O 08Apr2002                   
 POTCAR:    PAW_PBE C 08Apr2002                   
 POTCAR:    PAW_PBE N 08Apr2002                   
 POTCAR:    PAW_PBE H 15Jun2001                   

 ----------------------------------------------------------------------------- 
|                                                                             |
|           W    W    AA    RRRRR   N    N  II  N    N   GGGG   !!!           |
|           W    W   A  A   R    R  NN   N  II  NN   N  G    G  !!!           |
|           W    W  A    A  R    R  N N  N  II  N N  N  G       !!!           |
|           W WW W  AAAAAA  RRRRR   N  N N  II  N  N N  G  GGG   !            |
|           WW  WW  A    A  R   R   N   NN  II  N   NN  G    G                |
|           W    W  A    A  R    R  N    N  II  N    N   GGGG   !!!           |
|                                                                             |
|      For optimal performance we recommend to set                            |
|        NCORE= 4 - approx SQRT( number of cores)                             |
|      NCORE specifies how many cores store one orbital (NPAR=cpu/NCORE).     |
|      This setting can  greatly improve the performance of VASP for DFT.     |
|      The default,   NCORE=1            might be grossly inefficient         |
|      on modern multi-core architectures or massively parallel machines.     |
|      Do your own testing !!!!                                               |
|      Unfortunately you need to use the default for GW and RPA calculations. |
|      (for HF NCORE is supported but not extensively tested yet)             |
|                                                                             |
 ----------------------------------------------------------------------------- 

 POTCAR:    PAW_PBE Ag 02Apr2005                  
  local pseudopotential read in
  partial core-charges read in
  partial kinetic energy density read in
  atomic valenz-charges read in
  non local Contribution for L=           2  read in
    real space projection operators read in
  non local Contribution for L=           2  read in
    real space projection operators read in
  non local Contribution for L=           0  read in
    real space projection operators read in
  non local Contribution for L=           0  read in
    real space projection operators read in
  non local Contribution for L=           1  read in
    real space projection operators read in
  non local Contribution for L=           1  read in
    real space projection operators read in
    PAW grid and wavefunctions read in
 
   number of l-projection  operators is LMAX  =           6
   number of lm-projection operators is LMMAX =          18
 
 POTCAR:    PAW_PBE O 08Apr2002                   
  local pseudopotential read in
  partial core-charges read in
  partial kinetic energy density read in
  kinetic energy density of atom read in
  atomic valenz-charges read in
  non local Contribution for L=           0  read in
    real space projection operators read in
  non local Contribution for L=           0  read in
    real space projection operators read in
  non local Contribution for L=           1  read in
    real space projection operators read in
  non local Contribution for L=           1  read in
    real space projection operators read in
    PAW grid and wavefunctions read in
 
   number of l-projection  operators is LMAX  =           4
   number of lm-projection operators is LMMAX =           8
 
 POTCAR:    PAW_PBE C 08Apr2002                   
  local pseudopotential read in
  partial core-charges read in
  partial kinetic energy density read in
  atomic valenz-charges read in
  non local Contribution for L=           0  read in
    real space projection operators read in
  non local Contribution for L=           0  read in
    real space projection operators read in
  non local Contribution for L=           1  read in
    real space projection operators read in
  non local Contribution for L=           1  read in
    real space projection operators read in
    PAW grid and wavefunctions read in
 
   number of l-projection  operators is LMAX  =           4
   number of lm-projection operators is LMMAX =           8
 
 POTCAR:    PAW_PBE N 08Apr2002                   
  local pseudopotential read in
  partial core-charges read in
  partial kinetic energy density read in
  atomic valenz-charges read in
  non local Contribution for L=           0  read in
    real space projection operators read in
  non local Contribution for L=           0  read in
    real space projection operators read in
  non local Contribution for L=           1  read in
    real space projection operators read in
  non local Contribution for L=           1  read in
    real space projection operators read in
    PAW grid and wavefunctions read in
 
   number of l-projection  operators is LMAX  =           4
   number of lm-projection operators is LMMAX =           8
 
 POTCAR:    PAW_PBE H 15Jun2001                   
  local pseudopotential read in
  atomic valenz-charges read in
  non local Contribution for L=           0  read in
    real space projection operators read in
  non local Contribution for L=           0  read in
    real space projection operators read in
  non local Contribution for L=           1  read in
    real space projection operators read in
    PAW grid and wavefunctions read in
 
   number of l-projection  operators is LMAX  =           3
   number of lm-projection operators is LMMAX =           5
 
 Optimization of the real space projectors (new method)

 maximal supplied QI-value         = 15.12
 optimisation between [QCUT,QGAM] = [ 10.73, 21.62] = [ 32.26,130.87] Ry 
 Optimized for a Real-space Cutoff    1.42 Angstroem

   l    n(q)    QCUT    max X(q) W(low)/X(q) W(high)/X(q)  e(spline) 
   2      8    10.734    53.897    0.46E-03    0.48E-03    0.17E-06
   2      8    10.734    52.416    0.47E-03    0.50E-03    0.17E-06
   0      9    10.734   122.045    0.16E-03    0.13E-03    0.44E-07
   0      9    10.734    73.629    0.16E-03    0.13E-03    0.43E-07
   1      9    10.734    15.255    0.66E-04    0.32E-03    0.15E-06
   1      9    10.734     9.562    0.55E-04    0.26E-03    0.12E-06
 Optimization of the real space projectors (new method)

 maximal supplied QI-value         = 24.76
 optimisation between [QCUT,QGAM] = [ 10.64, 21.54] = [ 31.73,129.89] Ry 
 Optimized for a Real-space Cutoff    1.23 Angstroem

   l    n(q)    QCUT    max X(q) W(low)/X(q) W(high)/X(q)  e(spline) 
   0      8    10.645    20.381    0.38E-03    0.60E-03    0.15E-06
   0      8    10.645    15.268    0.40E-03    0.65E-03    0.17E-06
   1      7    10.645     5.964    0.30E-03    0.63E-03    0.18E-06
   1      7    10.645     5.382    0.24E-03    0.53E-03    0.16E-06
 Optimization of the real space projectors (new method)

 maximal supplied QI-value         = 25.13
 optimisation between [QCUT,QGAM] = [ 10.81, 21.61] = [ 32.71,130.83] Ry 
 Optimized for a Real-space Cutoff    1.23 Angstroem

   l    n(q)    QCUT    max X(q) W(low)/X(q) W(high)/X(q)  e(spline) 
   0      8    10.807   115.676    0.36E-03    0.72E-03    0.24E-06
   0      8    10.807    87.132    0.35E-03    0.71E-03    0.24E-06
   1      7    10.807     4.429    0.19E-03    0.39E-03    0.11E-06
   1      7    10.807     2.733    0.14E-03    0.28E-03    0.13E-06
 Optimization of the real space projectors (new method)

 maximal supplied QI-value         = 25.13
 optimisation between [QCUT,QGAM] = [ 10.81, 21.61] = [ 32.71,130.83] Ry 
 Optimized for a Real-space Cutoff    1.23 Angstroem

   l    n(q)    QCUT    max X(q) W(low)/X(q) W(high)/X(q)  e(spline) 
   0      8    10.807    79.467    0.34E-03    0.68E-03    0.21E-06
   0      8    10.807    66.151    0.34E-03    0.67E-03    0.21E-06
   1      7    10.807    14.030    0.45E-03    0.13E-02    0.11E-05
   1      7    10.807     9.831    0.48E-03    0.13E-02    0.11E-05
 Optimization of the real space projectors (new method)

 maximal supplied QI-value         = 34.20
 optimisation between [QCUT,QGAM] = [ 10.60, 21.55] = [ 31.48,130.03] Ry 
 Optimized for a Real-space Cutoff    1.23 Angstroem

   l    n(q)    QCUT    max X(q) W(low)/X(q) W(high)/X(q)  e(spline) 
   0      8    10.603    19.460    0.37E-03    0.59E-03    0.23E-06
   0      8    10.603    12.209    0.35E-03    0.56E-03    0.22E-06
   1      7    10.603     4.655    0.70E-04    0.28E-03    0.29E-06
  PAW_PBE Ag 02Apr2005                  :
 energy of atom  1       EATOM=-1037.2675
 kinetic energy error for atom=    0.0055 (will be added to EATOM!!)
  PAW_PBE O 08Apr2002                   :
 energy of atom  2       EATOM= -432.3788
 kinetic energy error for atom=    0.0389 (will be added to EATOM!!)
  PAW_PBE C 08Apr2002                   :
 energy of atom  3       EATOM= -147.1560
 kinetic energy error for atom=    0.0116 (will be added to EATOM!!)
  PAW_PBE N 08Apr2002                   :
 energy of atom  4       EATOM= -264.5486
 kinetic energy error for atom=    0.0253 (will be added to EATOM!!)
  PAW_PBE H 15Jun2001                   :
 energy of atom  5       EATOM=  -12.4884
 kinetic energy error for atom=    0.0045 (will be added to EATOM!!)
 
 
 POSCAR: Ag  O  C  N  H                          
  positions in direct lattice
  velocities in cartesian coordinates
 exchange correlation table for  LEXCH =        8
   RHO(1)=    0.500       N(1)  =     2000
   RHO(2)=  100.500       N(2)  =     4000
 


--------------------------------------------------------------------------------------------------------


 ion  position               nearest neighbor table
   1  0.000  0.000  0.000-  28 2.89   4 2.89   3 2.89  35 2.89  10 2.89   2 2.89  70 2.89  40 2.89
                            47 2.89
   2  1.000  0.167  0.000-  27 2.89   8 2.89   5 2.89  28 2.89   3 2.89   1 2.89  39 2.89  61 2.89
                            40 2.89
   3  0.167  0.167  0.000-  14 2.89  17 2.89   8 2.89   2 2.89   1 2.89   4 2.89  38 2.89  40 2.89
                            37 2.89
   4  0.167  0.000  0.000-  13 2.89  14 2.89   1 2.89  11 2.89  10 2.89   3 2.89  37 2.89  47 2.89
                            46 2.89
   5  0.000  0.333  0.000-   8 2.89  27 2.89   2 2.89  32 2.89   6 2.89   7 2.89  62 2.89  44 2.89
                            39 2.89
   6  0.000  0.500  0.000-  12 2.89   7 2.89   9 2.89  31 2.89   5 2.89  32 2.89  43 2.89  65 2.89
                            44 2.89
   7  0.167  0.500  0.000-   6 2.89  18 2.89  21 2.89  12 2.89   5 2.89   8 2.89  42 2.89  44 2.89
                            41 2.89
   8  0.167  0.333  0.000-   5 2.89   2 2.89   3 2.89  17 2.89  18 2.89   7 2.89  39 2.89  41 2.89
                            38 2.89
   9  0.000  0.667  0.000-  12 2.89  36 2.89  31 2.89  11 2.89   6 2.89  10 2.89  66 2.89  48 2.89
                            43 2.89
  10  1.000  0.833  0.000-  36 2.89  35 2.89   9 2.89  11 2.89   1 2.89   4 2.89  69 2.89  47 2.89
                            48 2.89
  11  0.167  0.833  0.000-  22 2.89   9 2.89  12 2.89  10 2.89   4 2.89  13 2.89  46 2.89  48 2.89
                            45 2.89
  12  0.167  0.667  0.000-   6 2.89   9 2.89  22 2.89  11 2.89   7 2.89  21 2.89  43 2.89  45 2.89
                            42 2.89
  13  0.333  0.000  0.000-   4 2.89  16 2.89  15 2.89  22 2.89  11 2.89  14 2.89  46 2.89  52 2.89
                            59 2.89
  14  0.333  0.167  0.000-   3 2.89  17 2.89   4 2.89  20 2.89  15 2.89  13 2.89  51 2.89  37 2.89
                            52 2.89
  15  0.500  0.167  0.000-  26 2.89  20 2.89  29 2.89  14 2.89  13 2.89  16 2.89  50 2.89  52 2.89
                            49 2.89
  16  0.500  0.000  0.000-  25 2.89  26 2.89  13 2.89  23 2.89  22 2.89  15 2.89  49 2.89  59 2.89
                            58 2.89
  17  0.333  0.333  0.000-  14 2.89   3 2.89   8 2.89  20 2.89  19 2.89  18 2.89  38 2.89  56 2.89
                            51 2.89
  18  0.333  0.500  0.000-   7 2.89  21 2.89  24 2.89  19 2.89   8 2.89  17 2.89  55 2.89  41 2.89
                            56 2.89
  19  0.500  0.500  0.000-  30 2.89  24 2.89  33 2.89  18 2.89  17 2.89  20 2.89  54 2.89  56 2.89
                            53 2.89
  20  0.500  0.333  0.000-  29 2.89  15 2.89  30 2.89  14 2.89  17 2.89  19 2.89  53 2.89  51 2.89
                            50 2.89
  21  0.333  0.667  0.000-  18 2.89  23 2.89   7 2.89  22 2.89  12 2.89  24 2.89  42 2.89  60 2.89
                            55 2.89
  22  0.333  0.833  0.000-  11 2.89  12 2.89  21 2.89  23 2.89  13 2.89  16 2.89  45 2.89  59 2.89
                            60 2.89
  23  0.500  0.833  0.000-  34 2.89  21 2.89  24 2.89  22 2.89  25 2.89  16 2.89  58 2.89  60 2.89
                            57 2.89
  24  0.500  0.667  0.000-  34 2.89  33 2.89  19 2.89  23 2.89  18 2.89  21 2.89  57 2.89  55 2.89
                            54 2.89
  25  0.667  0.000  0.000-  16 2.89  28 2.89  23 2.89  27 2.89  34 2.89  26 2.89  58 2.89  64 2.89
                            71 2.89
  26  0.667  0.167  0.000-  15 2.89  32 2.89  29 2.89  16 2.89  27 2.89  25 2.89  63 2.89  49 2.89
                            64 2.89
  27  0.833  0.167  0.000-   2 2.89   5 2.89  32 2.89  26 2.89  25 2.89  28 2.89  62 2.89  64 2.89
                            61 2.89
  28  0.833  0.000  0.000-   1 2.89   2 2.89  25 2.89  35 2.89  34 2.89  27 2.89  61 2.89  71 2.89
                            70 2.89
  29  0.667  0.333  0.000-  20 2.89  32 2.89  15 2.89  26 2.89  31 2.89  30 2.89  50 2.89  68 2.89
                            63 2.89
  30  0.667  0.500  0.000-  19 2.89  33 2.89  20 2.89  36 2.89  31 2.89  29 2.89  67 2.89  53 2.89
                            68 2.89
  31  0.833  0.500  0.000-   9 2.89  36 2.89  30 2.89   6 2.89  32 2.89  29 2.89  66 2.89  68 2.89
                            65 2.89
  32  0.833  0.333  0.000-  29 2.89  26 2.89  27 2.89   5 2.89  31 2.89   6 2.89  63 2.89  65 2.89
                            62 2.89
  33  0.667  0.667  0.000-  24 2.89  19 2.89  30 2.89  35 2.89  34 2.89  36 2.89  54 2.89  72 2.89
                            67 2.89
  34  0.667  0.833  0.000-  24 2.89  23 2.89  33 2.89  35 2.89  25 2.89  28 2.89  57 2.89  71 2.89
                            72 2.89
  35  0.833  0.833  0.000-  10 2.89  33 2.89  36 2.89  34 2.89   1 2.89  28 2.89  70 2.89  72 2.89
                            69 2.89
  36  0.833  0.667  0.000-  10 2.89   9 2.89  31 2.89  35 2.89  30 2.89  33 2.89  69 2.89  67 2.89
                            66 2.89
  37  0.222  0.111  0.107-  76 2.89  52 2.89  51 2.89  38 2.89  40 2.89  46 2.89  47 2.89  14 2.89
                             4 2.89   3 2.89  74 2.91  75 2.91
  38  0.222  0.278  0.107-  51 2.89  37 2.89  56 2.89  40 2.89  39 2.89  41 2.89   3 2.89  17 2.89
                             8 2.89  76 2.90  73 2.90  79 2.91
  39  0.056  0.278  0.107-  62 2.89  61 2.89  40 2.89  38 2.89  44 2.89  41 2.89   2 2.89   8 2.89
                             5 2.89  73 2.90  78 2.91 100 2.92
  40  0.056  0.111  0.107-  61 2.89  39 2.89  70 2.89  38 2.89  37 2.89  47 2.89   1 2.89   3 2.89
                             2 2.89  73 2.90  74 2.91  99 2.92
  41  0.222  0.444  0.107-  56 2.89  55 2.89  42 2.89  44 2.89  39 2.89  38 2.89  18 2.89   8 2.89
                             7 2.89  79 2.90  78 2.91  80 2.92
  42  0.222  0.611  0.107-  55 2.89  41 2.89  60 2.89  44 2.89  43 2.89  45 2.89   7 2.89  21 2.89
                            12 2.89  77 2.91  83 2.91  80 2.92
  43  0.056  0.611  0.107-  66 2.89  65 2.89  44 2.89  42 2.89  48 2.89  45 2.89   6 2.89  12 2.89
                             9 2.89 104 2.90  77 2.90  82 2.91
  44  0.056  0.444  0.107-  65 2.89  43 2.89  62 2.89  42 2.89  41 2.89  39 2.89   5 2.89   7 2.89
                             6 2.89  78 2.90  77 2.91 103 2.91
  45  0.222  0.778  0.107-  60 2.89  59 2.89  46 2.89  48 2.89  42 2.89  43 2.89  22 2.89  12 2.89
                            11 2.89  83 2.90  82 2.91  84 2.92
  46  0.222  0.944  0.107-  59 2.89  45 2.89  52 2.89  48 2.89  47 2.89  37 2.89  13 2.89  11 2.89
                             4 2.89  75 2.91  84 2.92  81 2.92
  47  0.056  0.944  0.107-  70 2.89  69 2.89  48 2.89  46 2.89  40 2.89  37 2.89  10 2.89   4 2.89
                             1 2.89  74 2.90 108 2.92  81 2.92
  48  0.056  0.778  0.107-  69 2.89  47 2.89  66 2.89  46 2.89  45 2.89  43 2.89  11 2.89   9 2.89
                            10 2.89 107 2.90  82 2.91  81 2.92
  49  0.556  0.111  0.107-  64 2.89  63 2.89  50 2.89  52 2.89  58 2.89  59 2.89  26 2.89  16 2.89
                            15 2.89  88 2.91  87 2.92  86 2.92
  50  0.556  0.278  0.107-  63 2.89  49 2.89  68 2.89  52 2.89  51 2.89  53 2.89  15 2.89  29 2.89
                            20 2.89  91 2.90  85 2.91  88 2.92
  51  0.389  0.278  0.107-  38 2.89  37 2.89  52 2.89  50 2.89  53 2.89  56 2.89  14 2.89  20 2.89
                            17 2.89  76 2.90  90 2.90  85 2.91
  52  0.389  0.111  0.107-  37 2.89  51 2.89  46 2.89  50 2.89  49 2.89  59 2.89  13 2.89  15 2.89
                            14 2.89  85 2.91  75 2.91  86 2.92
  53  0.556  0.444  0.107-  68 2.89  67 2.89  54 2.89  56 2.89  51 2.89  50 2.89  30 2.89  20 2.89
                            19 2.89  90 2.90  92 2.90  91 2.91
  54  0.556  0.611  0.107-  67 2.89  53 2.89  72 2.89  56 2.89  55 2.89  57 2.89  19 2.89  33 2.89
                            24 2.89  95 2.90  92 2.90  89 2.91
  55  0.389  0.611  0.107-  42 2.89  41 2.89  56 2.89  54 2.89  60 2.89  57 2.89  18 2.89  24 2.89
                            21 2.89  94 2.90  89 2.90  80 2.92
  56  0.389  0.444  0.107-  41 2.89  55 2.89  38 2.89  54 2.89  53 2.89  51 2.89  17 2.89  19 2.89
                            18 2.89  89 2.90  90 2.91  79 2.91
  57  0.556  0.778  0.107-  72 2.89  71 2.89  58 2.89  60 2.89  54 2.89  55 2.89  34 2.89  24 2.89
                            23 2.89  95 2.89  94 2.90  96 2.91
  58  0.556  0.944  0.107-  71 2.89  57 2.89  64 2.89  60 2.89  59 2.89  49 2.89  25 2.89  23 2.89
                            16 2.89  96 2.91  93 2.91  87 2.92
  59  0.389  0.944  0.107-  46 2.89  45 2.89  60 2.89  58 2.89  52 2.89  49 2.89  22 2.89  16 2.89
                            13 2.89  93 2.91  86 2.92  84 2.92
  60  0.389  0.778  0.107-  94 2.89  45 2.89  59 2.89  42 2.89  58 2.89  57 2.89  55 2.89  23 2.89
                            21 2.89  22 2.89  83 2.91  93 2.91
  61  0.889  0.111  0.107-  40 2.89  39 2.89  62 2.89  64 2.89  70 2.89  71 2.89   2 2.89  28 2.89
                            27 2.89  98 2.92 100 2.92  99 2.92
  62  0.889  0.278  0.107-  39 2.89  61 2.89  44 2.89  64 2.89  63 2.89  65 2.89  27 2.89   5 2.89
                            32 2.89 103 2.91  97 2.92 100 2.92
  63  0.722  0.278  0.107-  50 2.89  49 2.89  64 2.89  62 2.89  65 2.89  68 2.89  26 2.89  32 2.89
                            29 2.89 102 2.91  97 2.92  88 2.92
  64  0.722  0.111  0.107-  49 2.89  63 2.89  58 2.89  62 2.89  61 2.89  71 2.89  25 2.89  27 2.89
                            26 2.89  87 2.92  97 2.92  98 2.92
  65  0.889  0.444  0.107-  44 2.89  43 2.89  66 2.89  68 2.89  63 2.89  62 2.89   6 2.89  32 2.89
                            31 2.89 104 2.91 102 2.91 103 2.91
  66  0.889  0.611  0.107-  43 2.89  65 2.89  48 2.89  68 2.89  67 2.89  69 2.89  31 2.89   9 2.89
                            36 2.89 101 2.89 104 2.91 107 2.91
  67  0.722  0.611  0.107-  54 2.89  53 2.89  68 2.89  66 2.89  72 2.89  69 2.89  30 2.89  36 2.89
                            33 2.89  92 2.89 101 2.90 106 2.91
  68  0.722  0.444  0.107-  53 2.89  67 2.89  50 2.89  66 2.89  65 2.89  63 2.89  29 2.89  31 2.89
                            30 2.89 101 2.90  91 2.91 102 2.91
  69  0.889  0.778  0.107-  48 2.89  47 2.89  70 2.89  72 2.89  66 2.89  67 2.89  10 2.89  36 2.89
                            35 2.89 106 2.90 107 2.91 108 2.92
  70  0.889  0.944  0.107-  47 2.89  69 2.89  40 2.89  72 2.89  71 2.89  61 2.89   1 2.89  35 2.89
                            28 2.89 105 2.91 108 2.92  99 2.92
  71  0.722  0.944  0.107-  58 2.89  57 2.89  72 2.89  70 2.89  64 2.89  61 2.89  34 2.89  28 2.89
                            25 2.89  96 2.91 105 2.92  98 2.92
  72  0.722  0.778  0.107-  95 2.89  57 2.89  71 2.89  54 2.89  70 2.89  69 2.89  67 2.89  35 2.89
                            33 2.89  34 2.89 106 2.90 105 2.92
  73  0.111  0.222  0.214-  99 2.89 100 2.89  76 2.90  79 2.90  78 2.90  74 2.90  40 2.90  39 2.90
                            38 2.90 116 2.92 111 2.92 110 2.95
  74  0.111  0.055  0.215- 108 2.88  81 2.88  76 2.89  99 2.89  75 2.89  73 2.90  47 2.90  40 2.91
                            37 2.91 111 2.91 112 2.94 109 2.94
  75  0.278  0.055  0.215-  84 2.89  81 2.89  76 2.89  86 2.89  74 2.89  85 2.89  46 2.91  52 2.91
                            37 2.91 122 2.92 121 2.94 112 2.94
  76  0.277  0.221  0.214- 125 2.89  37 2.89  75 2.89  74 2.89  85 2.89  73 2.90  51 2.90  38 2.90
                            90 2.90  79 2.90 111 2.93 122 2.95
  77  0.111  0.556  0.215- 104 2.89  83 2.89  78 2.89  82 2.89  80 2.89 103 2.89  43 2.90  42 2.91
                            44 2.91 115 2.93 114 2.94 120 2.94
  78  0.111  0.389  0.215- 103 2.89  77 2.89 100 2.89  80 2.89  79 2.89  73 2.90  44 2.90  39 2.91
                            41 2.91 116 2.91 115 2.93 113 2.94
  79  0.278  0.389  0.215-  89 2.88 125 2.89  80 2.89  78 2.89  73 2.90  90 2.90  76 2.90  41 2.90
                            56 2.91  38 2.91 116 2.92 126 2.94
  80  0.278  0.555  0.215-  89 2.89  79 2.89  77 2.89  78 2.89  94 2.89  83 2.90 129 2.91  41 2.92
                            42 2.92  55 2.92 115 2.93 126 2.93
  81  0.111  0.889  0.215-  74 2.88 107 2.89  75 2.89  82 2.89  84 2.89 108 2.89  48 2.92  46 2.92
                            47 2.92 119 2.93 112 2.93 118 2.93
  82  0.111  0.722  0.215-  83 2.89 104 2.89 107 2.89  81 2.89  84 2.89  77 2.89  45 2.91  48 2.91
                            43 2.91 117 2.93 120 2.93 119 2.94
  83  0.278  0.722  0.215-  84 2.89  82 2.89  94 2.89  77 2.89  93 2.89  80 2.90  45 2.90  42 2.91
                            60 2.91 129 2.92 120 2.93 130 2.95
  84  0.278  0.889  0.215-  75 2.89  83 2.89  93 2.89  82 2.89  86 2.89  81 2.89  45 2.92  59 2.92
                            46 2.92 130 2.93 121 2.93 119 2.93
  85  0.444  0.222  0.215-  90 2.89  86 2.89  91 2.89  76 2.89  88 2.89  75 2.89  52 2.91  50 2.91
                            51 2.91 122 2.92 128 2.93 123 2.94
  86  0.444  0.055  0.215-  93 2.89  85 2.89  88 2.89  84 2.89  75 2.89  87 2.89  59 2.92  49 2.92
                            52 2.92 123 2.93 124 2.94 121 2.94
  87  0.611  0.056  0.215-  88 2.89  96 2.89  93 2.89  97 2.89  86 2.89  98 2.89  58 2.92  64 2.92
                            49 2.92 134 2.93 124 2.94 133 2.94
  88  0.611  0.222  0.215-  91 2.89  87 2.89  97 2.89  86 2.89  85 2.89 102 2.89  49 2.91  63 2.92
                            50 2.92 137 2.93 134 2.93 123 2.93
  89  0.444  0.555  0.215- 132 2.88  79 2.88  80 2.89  90 2.90  56 2.90  92 2.90  55 2.90  94 2.91
                           127 2.91  54 2.91  95 2.91 126 2.94
  90  0.445  0.389  0.214-  85 2.89 125 2.89  91 2.89  51 2.90  53 2.90  89 2.90  92 2.90  76 2.90
                            79 2.90 127 2.90  56 2.91 128 2.94
  91  0.611  0.388  0.215-  90 2.89  88 2.89 102 2.89  85 2.89 101 2.90 138 2.90  92 2.90  50 2.90
                            68 2.91  53 2.91 128 2.93 137 2.94
  92  0.611  0.556  0.214- 106 2.89 101 2.89  67 2.89  95 2.90  90 2.90  53 2.90  54 2.90  91 2.90
                            89 2.90 127 2.91 138 2.91 141 2.92
  93  0.444  0.889  0.215-  94 2.89  86 2.89  84 2.89  87 2.89  83 2.89  96 2.89  59 2.91  58 2.91
                            60 2.91 131 2.93 124 2.93 130 2.94
  94  0.444  0.723  0.214-  93 2.89 132 2.89  83 2.89  60 2.89  96 2.89  80 2.89  57 2.90  55 2.90
                            95 2.90  89 2.91 129 2.93 131 2.94
  95  0.612  0.723  0.214- 132 2.88 105 2.89 106 2.89  72 2.89  96 2.89  57 2.89  92 2.90  54 2.90
                            94 2.90  89 2.91 141 2.93 142 2.94
  96  0.611  0.889  0.215-  95 2.89  87 2.89  98 2.89  94 2.89 105 2.89  93 2.89  71 2.91  58 2.91
                            57 2.91 131 2.93 142 2.93 133 2.94
  97  0.778  0.222  0.215- 102 2.89 100 2.89  88 2.89  98 2.89 103 2.89  87 2.89  64 2.92  62 2.92
                            63 2.92 140 2.93 134 2.93 135 2.94
  98  0.778  0.056  0.215- 100 2.89  99 2.89  97 2.89 105 2.89  96 2.89  87 2.89  61 2.92  64 2.92
                            71 2.92 133 2.93 135 2.93 136 2.94
  99  0.944  0.055  0.215- 105 2.89  73 2.89  98 2.89 108 2.89 100 2.89  74 2.89  70 2.92  61 2.92
                            40 2.92 136 2.93 109 2.93 110 2.93
 100  0.944  0.222  0.215-  98 2.89  97 2.89  73 2.89  78 2.89 103 2.89  99 2.89  61 2.92  62 2.92
                            39 2.92 113 2.93 135 2.93 110 2.94
 101  0.778  0.556  0.214- 104 2.89  92 2.89 107 2.89 102 2.89  66 2.89 106 2.90  68 2.90  67 2.90
                            91 2.90 138 2.91 139 2.92 144 2.92
 102  0.778  0.389  0.215-  97 2.89 103 2.89  91 2.89  88 2.89 101 2.89 104 2.90  63 2.91  65 2.91
                            68 2.91 139 2.91 137 2.93 140 2.94
 103  0.944  0.389  0.215-  78 2.89 102 2.89  97 2.89 104 2.89 100 2.89  77 2.89  62 2.91  65 2.91
                            44 2.91 114 2.93 140 2.93 113 2.94
 104  0.945  0.556  0.215-  77 2.89  82 2.89 101 2.89 103 2.89 107 2.89 102 2.90  43 2.90  65 2.91
                            66 2.91 139 2.91 114 2.93 117 2.94
 105  0.778  0.889  0.215-  95 2.89  99 2.89 108 2.89 106 2.89  98 2.89  96 2.89  70 2.91  71 2.92
                            72 2.92 142 2.93 143 2.94 136 2.94
 106  0.778  0.722  0.214- 108 2.89  95 2.89 105 2.89  92 2.89 107 2.89 101 2.90  69 2.90  72 2.90
                            67 2.91 144 2.92 141 2.92 143 2.95
 107  0.945  0.723  0.215-  81 2.89  82 2.89 108 2.89 106 2.89 101 2.89 104 2.89  48 2.90  69 2.91
                            66 2.91 144 2.92 117 2.93 118 2.94
 108  0.944  0.889  0.215-  74 2.88 106 2.89 105 2.89 107 2.89  99 2.89  81 2.89  70 2.92  69 2.92
                            47 2.92 143 2.93 109 2.93 118 2.93
 109  1.000  1.000  0.325- 111 2.88 112 2.89 118 2.89 143 2.89 110 2.89 136 2.89  99 2.93 108 2.93
                            74 2.94
 110  0.000  0.167  0.325- 116 2.88 111 2.89 135 2.89 109 2.89 136 2.89 113 2.89  99 2.93 100 2.94
                            73 2.95
 111  0.166  0.166  0.323- 109 2.88 110 2.89 112 2.89 125 2.89 116 2.90 122 2.90  74 2.91  73 2.92
                            76 2.93
 112  0.167  1.000  0.325- 122 2.89 111 2.89 109 2.89 118 2.89 119 2.89 121 2.89  81 2.93  75 2.94
                            74 2.94
 113  1.000  0.333  0.324- 116 2.89 140 2.89 115 2.89 135 2.89 110 2.89 114 2.89 100 2.93 103 2.94
                            78 2.94
 114  0.000  0.500  0.324- 115 2.88 139 2.88 117 2.89 120 2.89 140 2.89 113 2.89 103 2.93 104 2.93
                            77 2.94
 115  0.166  0.500  0.324- 114 2.88 113 2.89 120 2.89 126 2.90 116 2.90 129 2.90  80 2.93  77 2.93
                            78 2.93
 116  0.166  0.333  0.323- 110 2.88 113 2.89 111 2.90 115 2.90 126 2.90 125 2.91  78 2.91  73 2.92
                            79 2.92
 117  0.000  0.667  0.324- 119 2.89 118 2.89 114 2.89 144 2.89 139 2.89 120 2.89  82 2.93 107 2.93
                           104 2.94
 118  1.000  0.833  0.325- 144 2.89 117 2.89 112 2.89 109 2.89 119 2.89 143 2.89  81 2.93 108 2.93
                           107 2.94
 119  0.167  0.833  0.325- 120 2.89 117 2.89 121 2.89 130 2.89 112 2.89 118 2.89  81 2.93  84 2.93
                            82 2.94
 120  0.167  0.667  0.324- 129 2.89 115 2.89 130 2.89 119 2.89 117 2.89 114 2.89  82 2.93  83 2.93
                            77 2.94
 121  0.333  1.000  0.325- 122 2.88 130 2.89 119 2.89 123 2.89 112 2.89 124 2.89  84 2.93  86 2.94
                            75 2.94
 122  0.333  0.166  0.324- 121 2.88 125 2.89 112 2.89 123 2.89 128 2.89 111 2.90  75 2.92  85 2.92
                            76 2.95
 123  0.500  0.166  0.324- 128 2.88 122 2.89 121 2.89 124 2.89 134 2.89 137 2.89  86 2.93  88 2.93
                            85 2.94
 124  0.500  1.000  0.324- 131 2.89 130 2.89 133 2.89 134 2.89 123 2.89 121 2.89  93 2.93  87 2.94
                            86 2.94
 125  0.333  0.332  0.321- 122 2.89  76 2.89  79 2.89  90 2.89 111 2.89 128 2.89 127 2.90 116 2.91
                           126 2.91
 126  0.333  0.500  0.324- 129 2.89 115 2.90 116 2.90 132 2.90 127 2.91 125 2.91  80 2.93  79 2.94
                            89 2.94
 127  0.500  0.500  0.322- 138 2.89 128 2.89 141 2.89 125 2.90  90 2.90 132 2.90  92 2.91  89 2.91
                           126 2.91
 128  0.500  0.333  0.324- 123 2.88 137 2.89 125 2.89 127 2.89 122 2.89 138 2.90  85 2.93  91 2.93
                            90 2.94
 129  0.333  0.667  0.323- 130 2.89 120 2.89 131 2.89 126 2.89 115 2.90 132 2.90  80 2.91  83 2.92
                            94 2.93
 130  0.333  0.833  0.325- 129 2.89 120 2.89 121 2.89 124 2.89 131 2.89 119 2.89  84 2.93  93 2.94
                            83 2.95
 131  0.500  0.833  0.324- 124 2.89 129 2.89 133 2.89 132 2.89 130 2.89 142 2.89  93 2.93  96 2.93
                            94 2.94
 132  0.500  0.667  0.320-  89 2.88  95 2.88 142 2.89  94 2.89 141 2.89 131 2.89 129 2.90 126 2.90
                           127 2.90
 133  0.667  1.000  0.324- 136 2.89 131 2.89 124 2.89 142 2.89 134 2.89 135 2.89  98 2.93  96 2.94
                            87 2.94
 134  0.667  0.166  0.324- 137 2.89 135 2.89 133 2.89 124 2.89 123 2.89 140 2.89  87 2.93  88 2.93
                            97 2.93
 135  0.833  0.167  0.325- 134 2.89 136 2.89 140 2.89 113 2.89 110 2.89 133 2.89 100 2.93  98 2.93
                            97 2.94
 136  0.833  1.000  0.325- 133 2.89 135 2.89 143 2.89 142 2.89 109 2.89 110 2.89  99 2.93  98 2.94
                           105 2.94
 137  0.667  0.333  0.324- 140 2.89 134 2.89 138 2.89 128 2.89 123 2.89 139 2.90  88 2.93 102 2.93
                            91 2.94
 138  0.667  0.500  0.322- 139 2.89 137 2.89 127 2.89 144 2.89 128 2.90  91 2.90 141 2.90 101 2.91
                            92 2.91
 139  0.834  0.500  0.323- 114 2.88 138 2.89 117 2.89 140 2.89 137 2.90 144 2.90 102 2.91 104 2.91
                           101 2.92
 140  0.833  0.333  0.324- 113 2.89 137 2.89 135 2.89 139 2.89 114 2.89 134 2.89  97 2.93 103 2.93
                           102 2.94
 141  0.667  0.667  0.323- 142 2.89 132 2.89 143 2.89 144 2.89 127 2.89 138 2.90 106 2.92  92 2.92
                            95 2.93
 142  0.667  0.833  0.324- 132 2.89 143 2.89 141 2.89 133 2.89 136 2.89 131 2.89 105 2.93  96 2.93
                            95 2.94
 143  0.833  0.833  0.325- 142 2.89 144 2.89 141 2.89 136 2.89 109 2.89 118 2.89 108 2.93 105 2.94
                           106 2.95
 144  0.834  0.667  0.323- 118 2.89 143 2.89 117 2.89 141 2.89 138 2.89 139 2.90 107 2.92 106 2.92
                           101 2.92
 145  0.617  0.448  0.470- 154 1.23
 146  0.718  0.598  0.478- 154 1.37 155 1.44
 147  0.483  0.654  0.475- 165 1.10 164 1.10 166 1.11 148 1.50
 148  0.435  0.555  0.468- 149 1.40 153 1.42 147 1.50
 149  0.342  0.506  0.462- 158 1.09 150 1.40 148 1.40
 150  0.295  0.413  0.459- 159 1.09 149 1.40 151 1.41
 151  0.341  0.365  0.462- 157 1.39 152 1.41 150 1.41
 152  0.435  0.413  0.465- 160 1.09 153 1.40 151 1.41
 153  0.481  0.506  0.469- 152 1.40 156 1.40 148 1.42
 154  0.634  0.526  0.474- 145 1.23 146 1.37 156 1.37
 155  0.789  0.577  0.479- 167 1.10 168 1.10 169 1.10 146 1.44
 156  0.574  0.555  0.474- 161 1.02 154 1.37 153 1.40
 157  0.295  0.273  0.464- 163 1.02 162 1.02 151 1.39
 158  0.306  0.542  0.461- 149 1.09
 159  0.222  0.377  0.457- 150 1.09
 160  0.471  0.377  0.467- 152 1.09
 161  0.602  0.623  0.476- 156 1.02
 162  0.232  0.242  0.447- 157 1.02
 163  0.330  0.243  0.452- 157 1.02
 164  0.516  0.675  0.520- 147 1.10
 165  0.437  0.679  0.470- 147 1.10
 166  0.536  0.689  0.440- 147 1.11
 167  0.850  0.640  0.469- 155 1.10
 168  0.792  0.551  0.523- 155 1.10
 169  0.778  0.527  0.444- 155 1.10
 
  LATTYP: Found a hexagonal cell.
 ALAT       =    17.3505005836
 C/A-ratio  =     1.2727759369
  
  Lattice vectors:
  
 A1 = (  17.3505005835,   0.0000000000,   0.0000000000)
 A2 = (  -8.6752502919,  15.0259742739,   0.0000000000)
 A3 = (   0.0000000000,   0.0000000000,  22.0832996368)


Analysis of symmetry for initial positions (statically):
=====================================================================
 Subroutine PRICEL returns:
 Original cell was already a primitive cell.
 

 Routine SETGRP: Setting up the symmetry group for a 
 hexagonal supercell.


 Subroutine GETGRP returns: Found  1 space group operations
 (whereof  1 operations were pure point group operations)
 out of a pool of 24 trial point group operations.


The static configuration has the point symmetry C_1 .


Analysis of symmetry for dynamics (positions and initial velocities):
=====================================================================
 Subroutine PRICEL returns:
 Original cell was already a primitive cell.
 

 Routine SETGRP: Setting up the symmetry group for a 
 hexagonal supercell.


 Subroutine GETGRP returns: Found  1 space group operations
 (whereof  1 operations were pure point group operations)
 out of a pool of 24 trial point group operations.


The dynamic configuration has the point symmetry C_1 .


Analysis of constrained symmetry for selective dynamics:
=====================================================================
 Subroutine PRICEL returns:
 Original cell was already a primitive cell.
 

 Routine SETGRP: Setting up the symmetry group for a 
 hexagonal supercell.


 Subroutine GETGRP returns: Found  1 space group operations
 (whereof  1 operations were pure point group operations)
 out of a pool of 24 trial point group operations.


The constrained configuration has the point symmetry C_1 .


 Subroutine INISYM returns: Found  1 space group operations
 (whereof  1 operations are pure point group operations),
 and found     1 'primitive' translations

 
 
 KPOINTS: K-POINTS                                

Automatic generation of k-mesh.
Space group operators:
 irot       det(A)        alpha          n_x          n_y          n_z        tau_x        tau_y        tau_z
    1     1.000000     0.000000     1.000000     0.000000     0.000000     0.000000     0.000000     0.000000
 
 Subroutine IBZKPT returns following result:
 ===========================================
 
 Found      5 irreducible k-points:
 
 Following reciprocal coordinates:
            Coordinates               Weight
  0.000000  0.000000  0.000000      1.000000
  0.333333  0.000000  0.000000      2.000000
  0.000000  0.333333  0.000000      2.000000
  0.333333  0.333333  0.000000      2.000000
 -0.333333  0.333333  0.000000      2.000000
 
 Following cartesian coordinates:
            Coordinates               Weight
  0.000000  0.000000  0.000000      1.000000
  0.019212  0.011092  0.000000      2.000000
  0.000000  0.022184  0.000000      2.000000
  0.019212  0.033276  0.000000      2.000000
 -0.019212  0.011092  0.000000      2.000000
 


--------------------------------------------------------------------------------------------------------




 Dimension of arrays:
   k-points           NKPTS =      5   k-points in BZ     NKDIM =      5   number of bands    NBANDS=   1008
   number of dos      NEDOS =    301   number of ions     NIONS =    169
   non local maximal  LDIM  =      6   non local SUM 2l+1 LMDIM =     18
   total plane-waves  NPLWV = 972000
   max r-space proj   IRMAX =   2084   max aug-charges    IRDMAX=   8500
   dimension x,y,z NGX =    90 NGY =   90 NGZ =  120
   dimension x,y,z NGXF=   180 NGYF=  180 NGZF=  240
   support grid    NGXF=   180 NGYF=  180 NGZF=  240
   ions per type =             144   2   9   2  12
   NGX,Y,Z   is equivalent  to a cutoff of   8.62,  8.62,  9.03 a.u.
   NGXF,Y,Z  is equivalent  to a cutoff of  17.25, 17.25, 18.07 a.u.

 SYSTEM =  x                                       
 POSCAR =  Ag  O  C  N  H                          

 Startparameter for this run:
   NWRITE =      0    write-flag & timer
   PREC   = normal    normal or accurate (medium, high low for compatibility)
   ISTART =      0    job   : 0-new  1-cont  2-samecut
   ICHARG =      2    charge: 1-file 2-atom 10-const
   ISPIN  =      1    spin polarized calculation?
   LNONCOLLINEAR =      F non collinear calculations
   LSORBIT =      F    spin-orbit coupling
   INIWAV =      1    electr: 0-lowe 1-rand  2-diag
   LASPH  =      F    aspherical Exc in radial PAW
   METAGGA=      F    non-selfconsistent MetaGGA calc.

 Electronic Relaxation 1
   ENCUT  =  450.0 eV  33.07 Ry    5.75 a.u.  30.01 30.01 38.20*2*pi/ulx,y,z
   ENINI  =  450.0     initial cutoff
   ENAUG  =  644.9 eV  augmentation charge cutoff
   NELM   =     50;   NELMIN=  5; NELMDL= -7     # of ELM steps 
   EDIFF  = 0.1E-04   stopping-criterion for ELM
   LREAL  =      T    real-space projection
   NLSPLINE    = F    spline interpolate recip. space projectors
   LCOMPAT=      F    compatible to vasp.4.4
   GGA_COMPAT  = T    GGA compatible to vasp.4.4-vasp.4.6
   LMAXPAW     = -100 max onsite density
   LMAXMIX     =    2 max onsite mixed and CHGCAR
   VOSKOWN=      0    Vosko Wilk Nusair interpolation
   ROPT   =   -0.00050  -0.00050  -0.00050  -0.00050
   ROPT   =   -0.00050
 Ionic relaxation
   EDIFFG = -.2E-01   stopping-criterion for IOM
   NSW    =    300    number of steps for IOM
   NBLOCK =      1;   KBLOCK =    300    inner block; outer block 
   IBRION =      2    ionic relax: 0-MD 1-quasi-New 2-CG
   NFREE  =      2    steps in history (QN), initial steepest desc. (CG)
   ISIF   =      2    stress and relaxation
   IWAVPR =     11    prediction:  0-non 1-charg 2-wave 3-comb
   ISYM   =      2    0-nonsym 1-usesym 2-fastsym
   LCORR  =      T    Harris-Foulkes like correction to forces

   POTIM  = 0.1500    time-step for ionic-motion
   TEIN   =    0.0    initial temperature
   TEBEG  =    0.0;   TEEND  =   0.0 temperature during run
   SMASS  =  -3.00    Nose mass-parameter (am)
   estimated Nose-frequenzy (Omega)   =  0.10E-29 period in steps =****** mass=  -0.688E-26a.u.
   SCALEE = 1.0000    scale energy and forces
   NPACO  =    256;   APACO  = 16.0  distance and # of slots for P.C.
   PSTRESS=    0.0 pullay stress

  Mass of Ions in am
   POMASS = 107.87 16.00 12.01 14.00  1.00
  Ionic Valenz
   ZVAL   =  11.00  6.00  4.00  5.00  1.00
  Atomic Wigner-Seitz radii
   RWIGS  =  -1.00 -1.00 -1.00 -1.00 -1.00
  virtual crystal weights 
   VCA    =   1.00  1.00  1.00  1.00  1.00
   NELECT =    1654.0000    total number of electrons
   NUPDOWN=      -1.0000    fix difference up-down

 DOS related values:
   EMIN   =  10.00;   EMAX   =-10.00  energy-range for DOS
   EFERMI =   0.00
   ISMEAR =     0;   SIGMA  =   0.03  broadening in eV -4-tet -1-fermi 0-gaus

 Electronic relaxation 2 (details)
   IALGO  =     68    algorithm
   LDIAG  =      T    sub-space diagonalisation (order eigenvalues)
   LSUBROT=      F    optimize rotation matrix (better conditioning)
   TURBO    =      0    0=normal 1=particle mesh
   IRESTART =      0    0=no restart 2=restart with 2 vectors
   NREBOOT  =      0    no. of reboots
   NMIN     =      0    reboot dimension
   EREF     =   0.00    reference energy to select bands
   IMIX   =      4    mixing-type and parameters
     AMIX     =   0.40;   BMIX     =  1.00
     AMIX_MAG =   1.60;   BMIX_MAG =  1.00
     AMIN     =   0.10
     WC   =   100.;   INIMIX=   1;  MIXPRE=   1;  MAXMIX= -45

 Intra band minimization:
   WEIMIN = 0.0010     energy-eigenvalue tresh-hold
   EBREAK =  0.25E-08  absolut break condition
   DEPER  =   0.30     relativ break condition  

   TIME   =   0.40     timestep for ELM

  volume/ion in A,a.u.               =      34.07       229.89
  Fermi-wavevector in a.u.,A,eV,Ry     =   1.080224  2.041327 15.876417  1.166884
  Thomas-Fermi vector in A             =   2.216209
 
 Write flags
   LWAVE        =      F    write WAVECAR
   LDOWNSAMPLE  =      F    k-point downsampling of WAVECAR
   LCHARG       =      F    write CHGCAR
   LVTOT        =      F    write LOCPOT, total local potential
   LVHAR        =      F    write LOCPOT, Hartree potential only
   LELF         =      F    write electronic localiz. function (ELF)
   LORBIT       =      0    0 simple, 1 ext, 2 COOP (PROOUT), +10 PAW based schemes


 Dipole corrections
   LMONO  =      F    monopole corrections only (constant potential shift)
   LDIPOL =      T    correct potential (dipole corrections)
   IDIPOL =      3    1-x, 2-y, 3-z, 4-all directions 
   EPSILON=  1.0000000 bulk dielectric constant

 Exchange correlation treatment:
   GGA     =    PE    GGA type
   LEXCH   =     8    internal setting for exchange type
   VOSKOWN=      0    Vosko Wilk Nusair interpolation
   LHFCALC =     F    Hartree Fock is set to
   LHFONE  =     F    Hartree Fock one center treatment
   AEXX    =    0.0000 exact exchange contribution

 Linear response parameters
   LEPSILON=     F    determine dielectric tensor
   LRPA    =     F    only Hartree local field effects (RPA)
   LNABLA  =     F    use nabla operator in PAW spheres
   LVEL    =     F    velocity operator in full k-point grid
   LINTERFAST=   F  fast interpolation
   KINTER  =     0    interpolate to denser k-point grid
   CSHIFT  =0.1000    complex shift for real part using Kramers Kronig
   OMEGAMAX=  -1.0    maximum frequency
   DEG_THRESHOLD= 0.2000000E-02 threshold for treating states as degnerate
   RTIME   =   -0.100 relaxation time in fs
  (WPLASMAI=    0.000 imaginary part of plasma frequency in eV, 0.658/RTIME)
   DFIELD  = 0.0000000 0.0000000 0.0000000 field for delta impulse in time
 
 Orbital magnetization related:
   ORBITALMAG=     F  switch on orbital magnetization
   LCHIMAG   =     F  perturbation theory with respect to B field
   DQ        =  0.001000  dq finite difference perturbation B field
   LLRAUG    =     F  two centre corrections for induced B field



--------------------------------------------------------------------------------------------------------


 conjugate gradient relaxation of ions
   using selective dynamics as specified on POSCAR
 charge density and potential will be updated during run
 non-spin polarized calculation
 RMM-DIIS sequential band-by-band and
  variant of blocked Davidson during initial phase
 perform sub-space diagonalisation
    before iterative eigenvector-optimisation
 modified Broyden-mixing scheme, WC =      100.0
 initial mixing is a Kerker type mixing with AMIX =  0.4000 and BMIX =      1.0000
 Hartree-type preconditioning will be used
 using additional bands          181
 real space projection scheme for non local part
 use partial core corrections
 calculate Harris-corrections to forces 
   (improved forces if not selfconsistent)
 use gradient corrections 
 use of overlap-Matrix (Vanderbilt PP)
 Gauss-broadening in eV      SIGMA  =   0.03


--------------------------------------------------------------------------------------------------------


  energy-cutoff  :      450.00
  volume of cell :     5757.30
      direct lattice vectors                 reciprocal lattice vectors
    17.350500584  0.000000000  0.000000000     0.057635225  0.033275713  0.000000000
    -8.675250292 15.025974274  0.000000000     0.000000000  0.066551425  0.000000000
     0.000000000  0.000000000 22.083299637     0.000000000  0.000000000  0.045283088

  length of vectors
    17.350500584 17.350500584 22.083299637     0.066551425  0.066551425  0.045283088


 
 k-points in units of 2pi/SCALE and weight: K-POINTS                                
   0.00000000  0.00000000  0.00000000       0.111
   0.01921174  0.01109190  0.00000000       0.222
   0.00000000  0.02218381  0.00000000       0.222
   0.01921174  0.03327571  0.00000000       0.222
  -0.01921174  0.01109190  0.00000000       0.222
 
 k-points in reciprocal lattice and weights: K-POINTS                                
   0.00000000  0.00000000  0.00000000       0.111
   0.33333333  0.00000000  0.00000000       0.222
   0.00000000  0.33333333  0.00000000       0.222
   0.33333333  0.33333333  0.00000000       0.222
  -0.33333333  0.33333333  0.00000000       0.222
 
 position of ions in fractional coordinates (direct lattice) 
   0.00000000  0.00000000  0.00000000
   1.00000000  0.16666667  0.00000000
   0.16666667  0.16666667  0.00000000
   0.16666667  0.00000000  0.00000000
   0.00000000  0.33333333  0.00000000
   0.00000000  0.50000000  0.00000000
   0.16666667  0.50000000  0.00000000
   0.16666667  0.33333333  0.00000000
   0.00000000  0.66666667  0.00000000
   1.00000000  0.83333333  0.00000000
   0.16666667  0.83333333  0.00000000
   0.16666667  0.66666667  0.00000000
   0.33333333  0.00000000  0.00000000
   0.33333333  0.16666667  0.00000000
   0.50000000  0.16666667  0.00000000
   0.50000000  0.00000000  0.00000000
   0.33333333  0.33333333  0.00000000
   0.33333333  0.50000000  0.00000000
   0.50000000  0.50000000  0.00000000
   0.50000000  0.33333333  0.00000000
   0.33333333  0.66666667  0.00000000
   0.33333333  0.83333333  0.00000000
   0.50000000  0.83333333  0.00000000
   0.50000000  0.66666667  0.00000000
   0.66666667  0.00000000  0.00000000
   0.66666667  0.16666667  0.00000000
   0.83333333  0.16666667  0.00000000
   0.83333333  0.00000000  0.00000000
   0.66666667  0.33333333  0.00000000
   0.66666667  0.50000000  0.00000000
   0.83333333  0.50000000  0.00000000
   0.83333333  0.33333333  0.00000000
   0.66666667  0.66666667  0.00000000
   0.66666667  0.83333333  0.00000000
   0.83333333  0.83333333  0.00000000
   0.83333333  0.66666667  0.00000000
   0.22222334  0.11111000  0.10692000
   0.22222334  0.27777666  0.10692000
   0.05555666  0.27777666  0.10692000
   0.05555666  0.11111000  0.10692000
   0.22222334  0.44444333  0.10692000
   0.22222334  0.61110999  0.10692000
   0.05555666  0.61110999  0.10692000
   0.05555666  0.44444333  0.10692000
   0.22222334  0.77777667  0.10692000
   0.22222334  0.94444333  0.10692000
   0.05555666  0.94444333  0.10692000
   0.05555666  0.77777667  0.10692000
   0.55555667  0.11111000  0.10692000
   0.55555667  0.27777666  0.10692000
   0.38889000  0.27777666  0.10692000
   0.38889000  0.11111000  0.10692000
   0.55555667  0.44444333  0.10692000
   0.55555667  0.61110999  0.10692000
   0.38889000  0.61110999  0.10692000
   0.38889000  0.44444333  0.10692000
   0.55555667  0.77777667  0.10692000
   0.55555667  0.94444333  0.10692000
   0.38889000  0.94444333  0.10692000
   0.38889000  0.77777667  0.10692000
   0.88889001  0.11111000  0.10692000
   0.88889001  0.27777666  0.10692000
   0.72222333  0.27777666  0.10692000
   0.72222333  0.11111000  0.10692000
   0.88889001  0.44444333  0.10692000
   0.88889001  0.61110999  0.10692000
   0.72222333  0.61110999  0.10692000
   0.72222333  0.44444333  0.10692000
   0.88889001  0.77777667  0.10692000
   0.88889001  0.94444333  0.10692000
   0.72222333  0.94444333  0.10692000
   0.72222333  0.77777667  0.10692000
   0.11081904  0.22194493  0.21441184
   0.11073019  0.05484733  0.21465515
   0.27756748  0.05508737  0.21491620
   0.27743735  0.22142902  0.21389426
   0.11113612  0.55567089  0.21459635
   0.11085015  0.38893624  0.21461259
   0.27771505  0.38898503  0.21464569
   0.27773835  0.55547987  0.21532420
   0.11107719  0.88878342  0.21535785
   0.11119540  0.72230298  0.21498176
   0.27763004  0.72234065  0.21457827
   0.27776908  0.88881864  0.21533407
   0.44438564  0.22195178  0.21498576
   0.44440133  0.05546352  0.21525004
   0.61110904  0.05553730  0.21514060
   0.61109132  0.22194848  0.21523865
   0.44390511  0.55496725  0.21453703
   0.44482511  0.38850112  0.21424737
   0.61114231  0.38837756  0.21472954
   0.61149071  0.55571301  0.21418459
   0.44439031  0.88900631  0.21500867
   0.44423296  0.72258482  0.21400699
   0.61166947  0.72267815  0.21392914
   0.61116001  0.88897484  0.21495212
   0.77778991  0.22218176  0.21516622
   0.77783229  0.05559151  0.21522788
   0.94434861  0.05546827  0.21541637
   0.94434210  0.22214860  0.21526684
   0.77812641  0.55565084  0.21416237
   0.77782050  0.38867531  0.21467435
   0.94440677  0.38886169  0.21506038
   0.94475709  0.55570601  0.21452187
   0.77792697  0.88901023  0.21512249
   0.77804730  0.72247399  0.21447876
   0.94476325  0.72250414  0.21462845
   0.94437064  0.88887396  0.21535310
   0.99995227  0.99992644  0.32464281
   0.00004137  0.16664022  0.32464302
   0.16615225  0.16611368  0.32263599
   0.16655378  0.99992363  0.32458995
   0.99985010  0.33329310  0.32449379
   0.00002770  0.50018331  0.32394574
   0.16606778  0.50001474  0.32383787
   0.16595293  0.33289907  0.32269778
   0.00011765  0.66680679  0.32388032
   0.99997031  0.83328541  0.32461944
   0.16665402  0.83329704  0.32459922
   0.16678895  0.66685081  0.32399416
   0.33327726  0.99985017  0.32459878
   0.33328140  0.16595527  0.32374451
   0.50000120  0.16638981  0.32448277
   0.50003694  0.99972985  0.32446842
   0.33323674  0.33217825  0.32064795
   0.33299444  0.49996269  0.32444441
   0.50039593  0.49953577  0.32186865
   0.50018711  0.33271435  0.32395855
   0.33328518  0.66695153  0.32333549
   0.33332837  0.83332955  0.32457569
   0.49993873  0.83325989  0.32387571
   0.50039380  0.66694605  0.32035170
   0.66662166  0.99972942  0.32443052
   0.66670387  0.16637808  0.32441340
   0.83335348  0.16654083  0.32456981
   0.83328435  0.99993000  0.32465828
   0.66703711  0.33295317  0.32409787
   0.66713277  0.49963232  0.32204404
   0.83369531  0.49998792  0.32272695
   0.83348822  0.33320256  0.32438150
   0.66678762  0.66662418  0.32297736
   0.66672139  0.83317293  0.32395003
   0.83328413  0.83328368  0.32454501
   0.83354350  0.66688660  0.32280326
   0.61729920  0.44816317  0.46985683
   0.71786588  0.59773934  0.47764232
   0.48321342  0.65400790  0.47505651
   0.43508622  0.55454476  0.46807177
   0.34233681  0.50574795  0.46216653
   0.29486091  0.41286762  0.45909060
   0.34102507  0.36534064  0.46189034
   0.43460544  0.41288212  0.46520858
   0.48108174  0.50606074  0.46896235
   0.63399540  0.52555554  0.47365549
   0.78871281  0.57689184  0.47873646
   0.57404770  0.55544093  0.47428167
   0.29540326  0.27313206  0.46361834
   0.30588486  0.54195803  0.46124645
   0.22229371  0.37711396  0.45650626
   0.47145165  0.37740393  0.46687565
   0.60199645  0.62271552  0.47564454
   0.23249247  0.24179694  0.44654572
   0.33033202  0.24269435  0.45189059
   0.51559149  0.67526273  0.51974301
   0.43686480  0.67936045  0.47003340
   0.53588437  0.68858038  0.44045728
   0.84969690  0.63986434  0.46918618
   0.79198646  0.55089910  0.52348497
   0.77784199  0.52726535  0.44376636
 
 position of ions in cartesian coordinates  (Angst):
   0.00000000  0.00000000  0.00000000
  15.90462553  2.50432905  0.00000000
   1.44587505  2.50432905  0.00000000
   2.89175010  0.00000000  0.00000000
  -2.89175010  5.00865809  0.00000000
  -4.33762515  7.51298714  0.00000000
  -1.44587505  7.51298714  0.00000000
  -0.00000000  5.00865809  0.00000000
  -5.78350019 10.01731618  0.00000000
  10.12112534 12.52164523  0.00000000
  -4.33762515 12.52164523  0.00000000
  -2.89175010 10.01731618  0.00000000
   5.78350019  0.00000000  0.00000000
   4.33762515  2.50432905  0.00000000
   7.22937524  2.50432905  0.00000000
   8.67525029  0.00000000  0.00000000
   2.89175010  5.00865809  0.00000000
   1.44587505  7.51298714  0.00000000
   4.33762515  7.51298714  0.00000000
   5.78350019  5.00865809  0.00000000
  -0.00000000 10.01731618  0.00000000
  -1.44587505 12.52164523  0.00000000
   1.44587505 12.52164523  0.00000000
   2.89175010 10.01731618  0.00000000
  11.56700039  0.00000000  0.00000000
  10.12112534  2.50432905  0.00000000
  13.01287544  2.50432905  0.00000000
  14.45875049  0.00000000  0.00000000
   8.67525029  5.00865809  0.00000000
   7.22937524  7.51298714  0.00000000
  10.12112534  7.51298714  0.00000000
  11.56700039  5.00865809  0.00000000
   5.78350019 10.01731618  0.00000000
   4.33762515 12.52164523  0.00000000
   7.22937524 12.52164523  0.00000000
   8.67525029 10.01731618  0.00000000
   2.89177914  1.66953603  2.36114631
   1.44590417  4.17386493  2.36114631
  -1.44584609  4.17386493  2.36114631
   0.00002887  1.66953603  2.36114631
   0.00002904  6.67819412  2.36114631
  -1.44584592  9.18252302  2.36114631
  -4.33759619  9.18252302  2.36114631
  -2.89172122  6.67819412  2.36114631
  -2.89172106 11.68685221  2.36114631
  -4.33759602 14.19118111  2.36114631
  -7.22934629 14.19118111  2.36114631
  -5.78347132 11.68685221  2.36114631
   8.67527933  1.66953603  2.36114631
   7.22940437  4.17386493  2.36114631
   4.33765410  4.17386493  2.36114631
   5.78352907  1.66953603  2.36114631
   5.78352924  6.67819412  2.36114631
   4.33765427  9.18252302  2.36114631
   1.44590401  9.18252302  2.36114631
   2.89177897  6.67819412  2.36114631
   2.89177914 11.68685221  2.36114631
   1.44590417 14.19118111  2.36114631
  -1.44584609 14.19118111  2.36114631
   0.00002887 11.68685221  2.36114631
  14.45877953  1.66953603  2.36114631
  13.01290456  4.17386493  2.36114631
  10.12115430  4.17386493  2.36114631
  11.56702926  1.66953603  2.36114631
  11.56702943  6.67819412  2.36114631
  10.12115447  9.18252302  2.36114631
   7.22940420  9.18252302  2.36114631
   8.67527917  6.67819412  2.36114631
   8.67527933 11.68685221  2.36114631
   7.22940437 14.19118111  2.36114631
   4.33765410 14.19118111  2.36114631
   5.78352907 11.68685221  2.36114631
  -0.00266206  3.33493882  4.73492087
   1.44540985  0.82413454  4.74029391
   4.33803799  0.82774138  4.74605888
   2.89272477  3.32718682  4.72349101
  -2.89231675  8.34949650  4.73899541
  -1.45081368  5.84414596  4.73935422
   1.44395259  5.84487912  4.74008502
  -0.00002745  8.34662627  4.75506877
  -5.78317388 13.35483687  4.75581202
  -4.33686334 10.85330594  4.74750655
  -1.44946580 10.85387208  4.73859619
  -2.89129165 13.35536598  4.75528672
   5.78482608  3.33504178  4.74759485
   7.22942567  0.83339348  4.75343117
  10.12124776  0.83450198  4.75101425
   8.67728162  3.33499212  4.75317965
   2.88749605  8.33892364  4.73768561
   4.34759389  5.83760777  4.73128879
   7.23435248  5.83575128  4.74193675
   5.78872046  8.35012942  4.72990252
  -0.00195788 13.35818592  4.74810085
   1.43906017 10.85754087  4.72598057
   4.34335768 10.85894326  4.72426125
   2.89185281 13.35771307  4.74685218
  11.56756199  3.33849737  4.75158016
  13.01350931  0.83531657  4.75294170
  15.90372002  0.83346474  4.75710420
  14.45761350  3.33799916  4.75380219
   8.68047256  8.34919523  4.72941185
  10.12371940  5.84022526  4.74071792
  13.01245772  5.84302568  4.74924285
  11.57111974  8.35002421  4.73735072
   5.78503603 13.35824481  4.75061441
   7.23186743 10.85587554  4.73639877
  10.12421110 10.85632869  4.73970436
   8.67409929 13.35619731  4.75570704
   8.67506029 15.02486902  7.16918437
  -1.44492789  2.50393164  7.16918912
   1.44174689  2.49601987  7.12486717
  -5.78479632 15.02482676  7.16801723
  14.45649872  5.00805361  7.16589360
  -4.33873490  7.51574160  7.15379077
  -1.45639392  7.51320863  7.15140863
  -0.00861639  5.00213285  7.12623176
  -5.78267442 10.01942166  7.15234618
  10.12102589 12.52092517  7.16866830
  -4.33752977 12.52109987  7.16822175
  -2.89122583 10.02008305  7.15486013
  -2.89142319 15.02372293  7.16821204
   4.34289563  2.49363960  7.14934695
   7.23179786  2.50016899  7.16565015
   0.00298464 15.02191496  7.16533339
   2.90009477  4.99130191  7.08096483
   1.44031871  7.51242647  7.16480311
   4.34852205  7.50601166  7.10792189
   5.79211653  4.99935722  7.15407363
  -0.00330679 10.02159652  7.14031451
  -1.44592837 12.52158836  7.16770228
   1.44544918 12.52054163  7.15224446
   2.89615898 10.02151423  7.07442265
   2.89331647 15.02190858  7.16449630
  10.12427436  2.49999278  7.16411828
  13.01431655  2.50243827  7.16757236
   5.78325762 15.02492239  7.16952618
   8.68497558  5.00294581  7.15715034
   7.24065212  7.50746233  7.11179499
  10.12751066  7.51280565  7.12687601
  11.57082224  5.00669308  7.16341378
   5.78596739 10.01667783  7.13240592
   4.33996613 12.51923494  7.15388564
   7.22895222 12.52089920  7.16702471
   8.67698879 10.02062096  7.12856120
   6.82252243  6.73408829 10.37598925
   7.26979395  8.98161600 10.54791851
   2.71031253  9.82710581 10.49081534
   2.73814902  8.33257534 10.33656922
   1.55222501  7.59935571 10.20616207
   1.53425451  6.20373817 10.13823522
   2.74753415  5.48959904 10.20006287
   3.95876609  6.20395616 10.27334053
   3.95680536  7.60405571 10.35623619
   6.44081174  7.89698409 10.45987610
   8.67988094  8.66836191 10.57208065
   5.14142584  8.34604111 10.47370420
   2.75590538  4.10407533 10.23822278
   0.60563390  8.14344738 10.18584351
   0.58534925  5.66650463 10.08116443
   4.90584859  5.67086173 10.31015489
   5.04272682  9.35690733 10.50380092
   1.93621179  3.63323455  9.86120293
   3.62599166  3.64671910  9.97923537
   3.08769732 10.14648042 11.47764056
   1.68620105 10.20805271 10.37988832
   3.32425491 10.34659109  9.72675014
   9.19168321  9.61458514 10.36117908
   8.96217396  8.27779573 11.56027554
   8.92178894  7.92267565  9.79982553
 


--------------------------------------------------------------------------------------------------------


 k-point  1 :   0.0000 0.0000 0.0000  plane waves:  124805
 k-point  2 :   0.3333 0.0000 0.0000  plane waves:  124786
 k-point  3 :   0.0000 0.3333 0.0000  plane waves:  124786
 k-point  4 :   0.3333 0.3333 0.0000  plane waves:  124836
 k-point  5 :  -0.3333 0.3333 0.0000  plane waves:  124786

 maximum and minimum number of plane-waves per node :    124836   124786

 maximum number of plane-waves:    124836
 maximum index in each direction: 
   IXMAX=   30   IYMAX=   30   IZMAX=   38
   IXMIN=  -30   IYMIN=  -30   IZMIN=  -38


 serial   3D FFT for wavefunctions
 parallel 3D FFT for charge:
    minimum data exchange during FFTs selected (reduces bandwidth)


 total amount of memory used by VASP MPI-rank0   363392. kBytes
=======================================================================

   base      :      30000. kBytes
   nonlr-proj:      53713. kBytes
   fftplans  :       9705. kBytes
   grid      :      52925. kBytes
   one-center:       2628. kBytes
   wavefun   :     214421. kBytes
 
     INWAV:  cpu time    0.0000: real time    0.0003
 Broyden mixing: mesh for mixing (old mesh)
   NGX = 61   NGY = 61   NGZ = 77
  (NGX  =180   NGY  =180   NGZ  =240)
  gives a total of 286517 points

 initial charge density was supplied:
 charge density of overlapping atoms calculated
 number of electron    1654.0000000 magnetization 
 keeping initial charge density in first step


--------------------------------------------------------------------------------------------------------


 Maximum index for non-local projection operator         2043
 Maximum index for augmentation-charges          451 (set IRDMAX)


--------------------------------------------------------------------------------------------------------


 First call to EWALD:  gamma=   0.099
 Maximum number of real-space cells 3x 3x 2
 Maximum number of reciprocal cells 3x 3x 3

    FEWALD:  cpu time    0.0068: real time    0.0068


--------------------------------------- Iteration      1(   1)  ---------------------------------------


    POTLOK:  cpu time    0.1612: real time    0.1696
    SETDIJ:  cpu time    0.0142: real time    0.0247
     EDDAV:  cpu time   67.0982: real time   67.2301
       DOS:  cpu time    0.0048: real time    0.0071
    --------------------------------------------
      LOOP:  cpu time   67.2785: real time   67.4314

 eigenvalue-minimisations  : 10080
 total energy-change (2. order) : 0.1005068E+05  (-0.7274543E+05)
 number of electron    1654.0000000 magnetization 
 augmentation part     1654.0000000 magnetization 

 DIPCOR: dipole corrections for dipol
 direction  3 min pos   167,
 dipolmoment           0.000000      0.000000     -0.002711 electrons x Angstroem
 Tr[quadrupol]    -87216.789613

 energy correction for charged system         0.000000 eV
 dipol+quadrupol energy correction           -0.000000 eV
 added-field ion interaction         -0.054340 eV  (added to PSCEN)


 Free energy of the ion-electron system (eV)
  ---------------------------------------------------
  alpha Z        PSCENC =      3286.03346745
  Ewald energy   TEWEN  =    381062.86010096
  -Hartree energ DENC   =   -537904.29013608
  -exchange      EXHF   =         0.00000000
  -V(xc)+E(xc)   XCENC  =     -1290.07859859
  PAW double counting   =    146603.82066668  -139974.77714806
  entropy T*S    EENTRO =        -0.02538192
  eigenvalues    EBANDS =      6033.57356029
  atomic energy  EATOM  =    152233.56501011
  Solvation  Ediel_sol  =         0.00000000
  ---------------------------------------------------
  free energy    TOTEN  =     10050.68154082 eV

  energy without entropy =    10050.70692274  energy(sigma->0) =    10050.69423178


--------------------------------------------------------------------------------------------------------




--------------------------------------- Iteration      1(   2)  ---------------------------------------


     EDDAV:  cpu time   73.0950: real time   73.7983
       DOS:  cpu time    0.0023: real time    0.0023
    --------------------------------------------
      LOOP:  cpu time   73.0973: real time   73.8005

 eigenvalue-minimisations  : 10800
 total energy-change (2. order) :-0.1013852E+05  (-0.9591090E+04)
 number of electron    1654.0000000 magnetization 
 augmentation part     1654.0000000 magnetization 

 DIPCOR: dipole corrections for dipol
 direction  3 min pos   167,
 dipolmoment           0.000000      0.000000     -0.002711 electrons x Angstroem
 Tr[quadrupol]    -87216.789613

 energy correction for charged system         0.000000 eV
 dipol+quadrupol energy correction           -0.000000 eV
 added-field ion interaction         -0.054340 eV  (added to PSCEN)


 Free energy of the ion-electron system (eV)
  ---------------------------------------------------
  alpha Z        PSCENC =      3286.03346745
  Ewald energy   TEWEN  =    381062.86010096
  -Hartree energ DENC   =   -537904.29013608
  -exchange      EXHF   =         0.00000000
  -V(xc)+E(xc)   XCENC  =     -1290.07859859
  PAW double counting   =    146603.82066668  -139974.77714806
  entropy T*S    EENTRO =        -0.02473037
  eigenvalues    EBANDS =     -4104.94681842
  atomic energy  EATOM  =    152233.56501011
  Solvation  Ediel_sol  =         0.00000000
  ---------------------------------------------------
  free energy    TOTEN  =       -87.83818634 eV

  energy without entropy =      -87.81345596  energy(sigma->0) =      -87.82582115


--------------------------------------------------------------------------------------------------------




--------------------------------------- Iteration      1(   3)  ---------------------------------------


     EDDAV:  cpu time   74.6640: real time   74.7433
       DOS:  cpu time    0.0043: real time    0.0043
    --------------------------------------------
      LOOP:  cpu time   74.6683: real time   74.7476

 eigenvalue-minimisations  : 11808
 total energy-change (2. order) :-0.4725121E+03  (-0.4627281E+03)
 number of electron    1654.0000000 magnetization 
 augmentation part     1654.0000000 magnetization 

 DIPCOR: dipole corrections for dipol
 direction  3 min pos   167,
 dipolmoment           0.000000      0.000000     -0.002711 electrons x Angstroem
 Tr[quadrupol]    -87216.789613

 energy correction for charged system         0.000000 eV
 dipol+quadrupol energy correction           -0.000000 eV
 added-field ion interaction         -0.054340 eV  (added to PSCEN)


 Free energy of the ion-electron system (eV)
  ---------------------------------------------------
  alpha Z        PSCENC =      3286.03346745
  Ewald energy   TEWEN  =    381062.86010096
  -Hartree energ DENC   =   -537904.29013608
  -exchange      EXHF   =         0.00000000
  -V(xc)+E(xc)   XCENC  =     -1290.07859859
  PAW double counting   =    146603.82066668  -139974.77714806
  entropy T*S    EENTRO =        -0.02485304
  eigenvalues    EBANDS =     -4577.45879752
  atomic energy  EATOM  =    152233.56501011
  Solvation  Ediel_sol  =         0.00000000
  ---------------------------------------------------
  free energy    TOTEN  =      -560.35028810 eV

  energy without entropy =     -560.32543506  energy(sigma->0) =     -560.33786158


--------------------------------------------------------------------------------------------------------




--------------------------------------- Iteration      1(   4)  ---------------------------------------


     EDDAV:  cpu time   73.3536: real time   73.4341
       DOS:  cpu time    0.0041: real time    0.0041
    --------------------------------------------
      LOOP:  cpu time   73.3577: real time   73.4382

 eigenvalue-minimisations  : 11520
 total energy-change (2. order) :-0.1048670E+02  (-0.1038259E+02)
 number of electron    1654.0000000 magnetization 
 augmentation part     1654.0000000 magnetization 

 DIPCOR: dipole corrections for dipol
 direction  3 min pos   167,
 dipolmoment           0.000000      0.000000     -0.002711 electrons x Angstroem
 Tr[quadrupol]    -87216.789613

 energy correction for charged system         0.000000 eV
 dipol+quadrupol energy correction           -0.000000 eV
 added-field ion interaction         -0.054340 eV  (added to PSCEN)


 Free energy of the ion-electron system (eV)
  ---------------------------------------------------
  alpha Z        PSCENC =      3286.03346745
  Ewald energy   TEWEN  =    381062.86010096
  -Hartree energ DENC   =   -537904.29013608
  -exchange      EXHF   =         0.00000000
  -V(xc)+E(xc)   XCENC  =     -1290.07859859
  PAW double counting   =    146603.82066668  -139974.77714806
  entropy T*S    EENTRO =        -0.03119479
  eigenvalues    EBANDS =     -4587.93915585
  atomic energy  EATOM  =    152233.56501011
  Solvation  Ediel_sol  =         0.00000000
  ---------------------------------------------------
  free energy    TOTEN  =      -570.83698819 eV

  energy without entropy =     -570.80579340  energy(sigma->0) =     -570.82139079


--------------------------------------------------------------------------------------------------------




--------------------------------------- Iteration      1(   5)  ---------------------------------------


     EDDAV:  cpu time   75.0957: real time   75.1764
       DOS:  cpu time    0.0036: real time    0.0036
    --------------------------------------------
      LOOP:  cpu time   75.0993: real time   75.1801

 eigenvalue-minimisations  : 11856
 total energy-change (2. order) :-0.3168681E+00  (-0.3165457E+00)
 number of electron    1654.0000000 magnetization 
 augmentation part     1654.0000000 magnetization 

 DIPCOR: dipole corrections for dipol
 direction  3 min pos   167,
 dipolmoment           0.000000      0.000000     -0.002711 electrons x Angstroem
 Tr[quadrupol]    -87216.789613

 energy correction for charged system         0.000000 eV
 dipol+quadrupol energy correction           -0.000000 eV
 added-field ion interaction         -0.054340 eV  (added to PSCEN)


 Free energy of the ion-electron system (eV)
  ---------------------------------------------------
  alpha Z        PSCENC =      3286.03346745
  Ewald energy   TEWEN  =    381062.86010096
  -Hartree energ DENC   =   -537904.29013608
  -exchange      EXHF   =         0.00000000
  -V(xc)+E(xc)   XCENC  =     -1290.07859859
  PAW double counting   =    146603.82066668  -139974.77714806
  entropy T*S    EENTRO =        -0.03108468
  eigenvalues    EBANDS =     -4588.25613405
  atomic energy  EATOM  =    152233.56501011
  Solvation  Ediel_sol  =         0.00000000
  ---------------------------------------------------
  free energy    TOTEN  =      -571.15385628 eV

  energy without entropy =     -571.12277160  energy(sigma->0) =     -571.13831394


--------------------------------------------------------------------------------------------------------




--------------------------------------- Iteration      1(   6)  ---------------------------------------


     EDDAV:  cpu time   76.9564: real time   77.0352
       DOS:  cpu time    0.0036: real time    0.0036
    --------------------------------------------
      LOOP:  cpu time   76.9601: real time   77.0388

 eigenvalue-minimisations  : 12240
 total energy-change (2. order) :-0.9960472E-02  (-0.9957178E-02)
 number of electron    1654.0000000 magnetization 
 augmentation part     1654.0000000 magnetization 

 DIPCOR: dipole corrections for dipol
 direction  3 min pos   167,
 dipolmoment           0.000000      0.000000     -0.002711 electrons x Angstroem
 Tr[quadrupol]    -87216.789613

 energy correction for charged system         0.000000 eV
 dipol+quadrupol energy correction           -0.000000 eV
 added-field ion interaction         -0.054340 eV  (added to PSCEN)


 Free energy of the ion-electron system (eV)
  ---------------------------------------------------
  alpha Z        PSCENC =      3286.03346745
  Ewald energy   TEWEN  =    381062.86010096
  -Hartree energ DENC   =   -537904.29013608
  -exchange      EXHF   =         0.00000000
  -V(xc)+E(xc)   XCENC  =     -1290.07859859
  PAW double counting   =    146603.82066668  -139974.77714806
  entropy T*S    EENTRO =        -0.03107934
  eigenvalues    EBANDS =     -4588.26609986
  atomic energy  EATOM  =    152233.56501011
  Solvation  Ediel_sol  =         0.00000000
  ---------------------------------------------------
  free energy    TOTEN  =      -571.16381675 eV

  energy without entropy =     -571.13273741  energy(sigma->0) =     -571.14827708


--------------------------------------------------------------------------------------------------------




--------------------------------------- Iteration      1(   7)  ---------------------------------------


     EDDAV:  cpu time   93.2312: real time   93.7105
       DOS:  cpu time    0.0036: real time    0.0036
    CHARGE:  cpu time    2.8474: real time    2.8530
    MIXING:  cpu time    0.0052: real time    0.0055
    --------------------------------------------
      LOOP:  cpu time   96.0875: real time   96.5727

 eigenvalue-minimisations  : 14640
 total energy-change (2. order) :-0.5649106E-03  (-0.5648922E-03)
 number of electron    1654.0000744 magnetization 
 augmentation part      737.2442226 magnetization 

 DIPCOR: dipole corrections for dipol
 direction  3 min pos   167,
 dipolmoment           0.000000      0.000000     -0.002711 electrons x Angstroem
 Tr[quadrupol]    -87216.789613

 energy correction for charged system         0.000000 eV
 dipol+quadrupol energy correction           -0.000000 eV
 added-field ion interaction         -0.054340 eV  (added to PSCEN)


 Broyden mixing:
  rms(total) = 0.59276E+01    rms(broyden)= 0.59268E+01
  rms(prec ) = 0.62550E+01
  weight for this iteration     100.00

 Free energy of the ion-electron system (eV)
  ---------------------------------------------------
  alpha Z        PSCENC =      3286.03346745
  Ewald energy   TEWEN  =    381062.86010096
  -Hartree energ DENC   =   -537904.29013608
  -exchange      EXHF   =         0.00000000
  -V(xc)+E(xc)   XCENC  =     -1290.07859859
  PAW double counting   =    146603.82066668  -139974.77714806
  entropy T*S    EENTRO =        -0.03107932
  eigenvalues    EBANDS =     -4588.26666479
  atomic energy  EATOM  =    152233.56501011
  Solvation  Ediel_sol  =         0.00000000
  ---------------------------------------------------
  free energy    TOTEN  =      -571.16438166 eV

  energy without entropy =     -571.13330233  energy(sigma->0) =     -571.14884200


--------------------------------------------------------------------------------------------------------




--------------------------------------- Iteration      1(   8)  ---------------------------------------


    POTLOK:  cpu time    0.1494: real time    0.1497
    SETDIJ:  cpu time    0.0136: real time    0.0136
    EDDIAG:  cpu time   12.9095: real time   12.9251
  RMM-DIIS:  cpu time   31.2947: real time   31.3362
    ORTHCH:  cpu time    4.2066: real time    4.2100
       DOS:  cpu time    0.0011: real time    0.0011
    CHARGE:  cpu time    2.8545: real time    2.8575
    MIXING:  cpu time    0.0049: real time    0.0090
    --------------------------------------------
      LOOP:  cpu time   51.4344: real time   51.5023

 eigenvalue-minimisations  : 10108
 total energy-change (2. order) : 0.3787632E+02  (-0.1476933E+02)
 number of electron    1654.0000756 magnetization 
 augmentation part      758.6865870 magnetization 

 DIPCOR: dipole corrections for dipol
 direction  3 min pos   171,
 dipolmoment           0.000000      0.000000      2.452641 electrons x Angstroem
 Tr[quadrupol]    -87214.779602

 energy correction for charged system         0.000000 eV
 dipol+quadrupol energy correction           -0.095557 eV
 added-field ion interaction         96.593744 eV  (added to PSCEN)


 Broyden mixing:
  rms(total) = 0.40259E+01    rms(broyden)= 0.40249E+01
  rms(prec ) = 0.43836E+01
  weight for this iteration     100.00

 eigenvalues of (default mixing * dielectric matrix)
  average eigenvalue GAMMA=   1.0314
  1.0314

 Free energy of the ion-electron system (eV)
  ---------------------------------------------------
  alpha Z        PSCENC =      3382.58599433
  Ewald energy   TEWEN  =    381062.86010096
  -Hartree energ DENC   =   -536644.13091630
  -exchange      EXHF   =         0.00000000
  -V(xc)+E(xc)   XCENC  =     -1328.41189818
  PAW double counting   =    153242.36677295  -146742.61551963
  entropy T*S    EENTRO =        -0.02741313
  eigenvalues    EBANDS =     -5739.48019390
  atomic energy  EATOM  =    152233.56501011
  Solvation  Ediel_sol  =         0.00000000
  ---------------------------------------------------
  free energy    TOTEN  =      -533.28806280 eV

  energy without entropy =     -533.26064967  energy(sigma->0) =     -533.27435623


--------------------------------------------------------------------------------------------------------




--------------------------------------- Iteration      1(   9)  ---------------------------------------


    POTLOK:  cpu time    0.1491: real time    0.1493
    SETDIJ:  cpu time    0.0137: real time    0.0137
    EDDIAG:  cpu time   12.8536: real time   12.9679
  RMM-DIIS:  cpu time   30.5741: real time   30.9125
    ORTHCH:  cpu time    4.1882: real time    4.1931
       DOS:  cpu time    0.0011: real time    0.0011
    CHARGE:  cpu time    2.8488: real time    2.8514
    MIXING:  cpu time    0.0046: real time    0.0047
    --------------------------------------------
      LOOP:  cpu time   50.6333: real time   51.0938

 eigenvalue-minimisations  : 10084
 total energy-change (2. order) :-0.2825952E+02  (-0.3388796E+01)
 number of electron    1654.0000743 magnetization 
 augmentation part      758.1133290 magnetization 

 DIPCOR: dipole corrections for dipol
 direction  3 min pos   169,
 dipolmoment           0.000000      0.000000     -5.281885 electrons x Angstroem
 Tr[quadrupol]    -87218.185307

 energy correction for charged system         0.000000 eV
 dipol+quadrupol energy correction           -0.443173 eV
 added-field ion interaction       -156.941081 eV  (added to PSCEN)


 Broyden mixing:
  rms(total) = 0.29437E+01    rms(broyden)= 0.29434E+01
  rms(prec ) = 0.45896E+01
  weight for this iteration     100.00

 eigenvalues of (default mixing * dielectric matrix)
  average eigenvalue GAMMA=   1.1126
  1.5705  0.6546

 Free energy of the ion-electron system (eV)
  ---------------------------------------------------
  alpha Z        PSCENC =      3128.70355348
  Ewald energy   TEWEN  =    381062.86010096
  -Hartree energ DENC   =   -536823.50204466
  -exchange      EXHF   =         0.00000000
  -V(xc)+E(xc)   XCENC  =     -1333.74123448
  PAW double counting   =    157307.11498538  -150884.79735468
  entropy T*S    EENTRO =        -0.01089561
  eigenvalues    EBANDS =     -5251.73970667
  atomic energy  EATOM  =    152233.56501011
  Solvation  Ediel_sol  =         0.00000000
  ---------------------------------------------------
  free energy    TOTEN  =      -561.54758617 eV

  energy without entropy =     -561.53669056  energy(sigma->0) =     -561.54213836


--------------------------------------------------------------------------------------------------------




--------------------------------------- Iteration      1(  10)  ---------------------------------------


    POTLOK:  cpu time    0.1462: real time    0.1473
    SETDIJ:  cpu time    0.0139: real time    0.0139
    EDDIAG:  cpu time   12.8860: real time   12.8952
  RMM-DIIS:  cpu time   31.0800: real time   31.1049
    ORTHCH:  cpu time    4.1838: real time    4.1863
       DOS:  cpu time    0.0011: real time    0.0011
    CHARGE:  cpu time    2.8763: real time    2.8780
    MIXING:  cpu time    0.0237: real time    0.0237
    --------------------------------------------
      LOOP:  cpu time   51.2110: real time   51.2502

 eigenvalue-minimisations  : 10102
 total energy-change (2. order) : 0.2410444E+02  (-0.3378855E+01)
 number of electron    1654.0000758 magnetization 
 augmentation part      760.2839759 magnetization 

 DIPCOR: dipole corrections for dipol
 direction  3 min pos   173,
 dipolmoment           0.000000      0.000000      3.109924 electrons x Angstroem
 Tr[quadrupol]    -87232.134854

 energy correction for charged system         0.000000 eV
 dipol+quadrupol energy correction           -0.153637 eV
 added-field ion interaction        152.554380 eV  (added to PSCEN)


 Broyden mixing:
  rms(total) = 0.20480E+01    rms(broyden)= 0.20479E+01
  rms(prec ) = 0.29780E+01
  weight for this iteration     100.00

 eigenvalues of (default mixing * dielectric matrix)
  average eigenvalue GAMMA=   1.1650
  2.3200  0.9065  0.2684

 Free energy of the ion-electron system (eV)
  ---------------------------------------------------
  alpha Z        PSCENC =      3438.48855052
  Ewald energy   TEWEN  =    381062.86010096
  -Hartree energ DENC   =   -536745.19065400
  -exchange      EXHF   =         0.00000000
  -V(xc)+E(xc)   XCENC  =     -1336.61419863
  PAW double counting   =    159736.98527611  -153362.54684436
  entropy T*S    EENTRO =        -0.02273058
  eigenvalues    EBANDS =     -5564.96765214
  atomic energy  EATOM  =    152233.56501011
  Solvation  Ediel_sol  =         0.00000000
  ---------------------------------------------------
  free energy    TOTEN  =      -537.44314201 eV

  energy without entropy =     -537.42041144  energy(sigma->0) =     -537.43177673


--------------------------------------------------------------------------------------------------------




--------------------------------------- Iteration      1(  11)  ---------------------------------------


    POTLOK:  cpu time    0.1696: real time    0.1696
    SETDIJ:  cpu time    0.0138: real time    0.0138
    EDDIAG:  cpu time   12.8437: real time   12.8521
  RMM-DIIS:  cpu time   31.0654: real time   31.0880
    ORTHCH:  cpu time    4.1731: real time    4.1755
       DOS:  cpu time    0.0011: real time    0.0011
    CHARGE:  cpu time    2.8594: real time    2.8613
    MIXING:  cpu time    0.0050: real time    0.0051
    --------------------------------------------
[...]
    --------------------------------------------
      LOOP:  cpu time   37.9445: real time   37.9623

 eigenvalue-minimisations  :  5635
 total energy-change (2. order) :-0.7273920E-06  (-0.1078734E-05)
 number of electron    1654.0000754 magnetization 
 augmentation part      760.3670483 magnetization 

 DIPCOR: dipole corrections for dipol
 direction  3 min pos   166,
 dipolmoment           0.000000      0.000000     -0.315507 electrons x Angstroem
 Tr[quadrupol]    -87240.025523

 energy correction for charged system         0.000000 eV
 dipol+quadrupol energy correction           -0.001581 eV
 added-field ion interaction         -4.798050 eV  (added to PSCEN)


 eigenvalues of (default mixing * dielectric matrix)
  average eigenvalue GAMMA=   1.2128
  1.2128

  free energy =  -0.523041172717E+03  energy without entropy=  -0.523018553592E+03


--------------------------------------------------------------------------------------------------------




--------------------------------------- Iteration      3(   3)  ---------------------------------------


    POTLOK:  cpu time    0.1489: real time    0.1494
    SETDIJ:  cpu time    0.0138: real time    0.0138
    EDDIAG:  cpu time   12.8452: real time   12.8501
  RMM-DIIS:  cpu time   12.3252: real time   12.7152
    ORTHCH:  cpu time    6.3596: real time    6.3618
       DOS:  cpu time    0.0012: real time    0.0012
    CHARGE:  cpu time    3.0742: real time    3.0758
    MIXING:  cpu time    0.0114: real time    0.0114
    --------------------------------------------
      LOOP:  cpu time   34.7795: real time   35.1788

 eigenvalue-minimisations  :  2150
 total energy-change (2. order) :-0.4137692E-06  (-0.6690387E-07)
 number of electron    1654.0000754 magnetization 
 augmentation part      760.3670613 magnetization 

 DIPCOR: dipole corrections for dipol
 direction  3 min pos   166,
 dipolmoment           0.000000      0.000000     -0.314729 electrons x Angstroem
 Tr[quadrupol]    -87240.026491

 energy correction for charged system         0.000000 eV
 dipol+quadrupol energy correction           -0.001574 eV
 added-field ion interaction         -4.786222 eV  (added to PSCEN)


 eigenvalues of (default mixing * dielectric matrix)
  average eigenvalue GAMMA=   1.0989
  1.5295  0.6683

  free energy =  -0.523041173131E+03  energy without entropy=  -0.523018551823E+03


--------------------------------------------------------------------------------------------------------




--------------------------------------- Iteration      3(   4)  ---------------------------------------


    POTLOK:  cpu time    0.2247: real time    0.2254
    SETDIJ:  cpu time    0.0301: real time    0.0301
    EDDIAG:  cpu time   14.4005: real time   14.4063
  RMM-DIIS:  cpu time   11.3385: real time   11.3437
    ORTHCH:  cpu time    4.1732: real time    4.1748
       DOS:  cpu time    0.0011: real time    0.0011
    CHARGE:  cpu time    2.8490: real time    2.8501
    MIXING:  cpu time    0.0060: real time    0.0060
    --------------------------------------------
      LOOP:  cpu time   33.0231: real time   33.0374

 eigenvalue-minimisations  :  1372
 total energy-change (2. order) : 0.2932793E-06  (-0.1545972E-07)
 number of electron    1654.0000754 magnetization 
 augmentation part      760.3670592 magnetization 

 DIPCOR: dipole corrections for dipol
 direction  3 min pos   166,
 dipolmoment           0.000000      0.000000     -0.315482 electrons x Angstroem
 Tr[quadrupol]    -87240.025841

 energy correction for charged system         0.000000 eV
 dipol+quadrupol energy correction           -0.001581 eV
 added-field ion interaction         -4.797671 eV  (added to PSCEN)


 eigenvalues of (default mixing * dielectric matrix)
  average eigenvalue GAMMA=   1.0814
  1.9788  0.9907  0.2746

  free energy =  -0.523041172837E+03  energy without entropy=  -0.523018554675E+03


--------------------------------------------------------------------------------------------------------




--------------------------------------- Iteration      3(   5)  ---------------------------------------


    POTLOK:  cpu time    0.1486: real time    0.1502
    SETDIJ:  cpu time    0.0140: real time    0.0140
    EDDIAG:  cpu time   12.9534: real time   12.9587
  RMM-DIIS:  cpu time   11.3100: real time   11.3147
    ORTHCH:  cpu time    4.2092: real time    4.2108
       DOS:  cpu time    0.0011: real time    0.0011
    --------------------------------------------
      LOOP:  cpu time   28.6362: real time   28.6494

 eigenvalue-minimisations  :  1286
 total energy-change (2. order) :-0.7604831E-07  (-0.7317769E-08)
 number of electron    1654.0000754 magnetization 
 augmentation part      760.3670592 magnetization 

 DIPCOR: dipole corrections for dipol
 direction  3 min pos   166,
 dipolmoment           0.000000      0.000000     -0.315144 electrons x Angstroem
 Tr[quadrupol]    -87240.026407

 energy correction for charged system         0.000000 eV
 dipol+quadrupol energy correction           -0.001578 eV
 added-field ion interaction         -4.792537 eV  (added to PSCEN)


  free energy =  -0.523041172913E+03  energy without entropy=  -0.523018552940E+03


--------------------------------------------------------------------------------------------------------




------------------------ aborting loop because EDIFF is reached ----------------------------------------


    CHARGE:  cpu time    2.8428: real time    2.8448
    FORLOC:  cpu time    0.1206: real time    0.1206
    FORNL :  cpu time   10.5252: real time   10.5298
    STRESS:  cpu time   31.2907: real time   31.3044
    FORCOR:  cpu time    0.2239: real time    0.2240
    FORHAR:  cpu time    0.1500: real time    0.1500
    MIXING:  cpu time    0.0050: real time    0.0050
    OFIELD:  cpu time    0.0001: real time    0.0001

  Number of pair interactions contributing to vdW energy:  664717
  Edisp (eV):  -10.88875
    FORVDW:  cpu time    0.0886: real time    0.0889

  FORCE on cell =-STRESS in cart. coord.  units (eV):
  Direction    XX          YY          ZZ          XY          YZ          ZX
  --------------------------------------------------------------------------------------
  Alpha Z  3286.08781  3286.08781  3286.08781
  Ewald  473199.51191472148.85965************   556.08019   289.28632   221.18179
  Hartree515269.83090514258.97547************   503.93513   190.47660   159.45411
  E(xc)   -8631.72838 -8631.61265 -8660.50252     0.06304     0.42310     0.26898
  Local  ************************************ -1063.38074  -467.72641  -374.21979
  n-local -1366.11870 -1369.27926 -1410.46709     1.00056     0.26051     0.20965
  augment 13250.61227 13250.34014 13304.49433     0.09443    -0.40303    -0.06079
  Kinetic 20708.94912 20708.77588 20976.73575     2.21801   -12.06137    -6.82641
  Fock        0.00000     0.00000     0.00000     0.00000     0.00000     0.00000
  vdW       -15.05169   -15.16613   -11.82149    -0.02209    -0.03242    -0.01817
  -------------------------------------------------------------------------------------
  Total       9.74588     9.71065    10.06010    -0.01147     0.22330    -0.01062
  in kB       2.71215     2.70234     2.79959    -0.00319     0.06214    -0.00296
  external pressure =        2.74 kB  Pullay stress =        0.00 kB



--------------------------------------------------------------------------------------------------------



  FREE ENERGIE OF THE ION-ELECTRON SYSTEM (eV)
  ---------------------------------------------------
  free  energy   TOTEN  =      -533.92992406 eV

  energy  without entropy=     -533.90730408  energy(sigma->0) =     -533.91861407
 
 d Force = 0.5611099E-05[ 0.251E-06, 0.110E-04]  d Energy = 0.6129837E-05-0.519E-06
 d Force = 0.1436622E+00[ 0.144E+00, 0.144E+00]  d Ewald  = 0.1436625E+00-0.302E-06


--------------------------------------------------------------------------------------------------------


    POTLOK:  cpu time    0.1647: real time    0.1647


--------------------------------------------------------------------------------------------------------




--------------------------------------------------------------------------------------------------------


    WAVPRE:  cpu time    0.1118: real time    0.1134
    FEWALD:  cpu time    0.0048: real time    0.0048
    ORTHCH:  cpu time    7.6190: real time    7.6220
     LOOP+:  cpu time  259.9352: real time  260.4357


--------------------------------------- Iteration      4(   1)  ---------------------------------------


    POTLOK:  cpu time    0.1504: real time    0.1509
    SETDIJ:  cpu time    0.0139: real time    0.0139
     EDDAV:  cpu time   68.0781: real time   68.1082
       DOS:  cpu time    0.0030: real time    0.0030
    CHARGE:  cpu time    2.8593: real time    2.8608
    MIXING:  cpu time    0.0040: real time    0.0040
    --------------------------------------------
      LOOP:  cpu time   71.1088: real time   71.1408

 eigenvalue-minimisations  : 10464
 total energy-change (2. order) :-0.7260925E-04  (-0.6266246E-03)
 number of electron    1654.0000754 magnetization 
 augmentation part      760.3670040 magnetization 

 DIPCOR: dipole corrections for dipol
 direction  3 min pos   166,
 dipolmoment           0.000000      0.000000     -0.315129 electrons x Angstroem
 Tr[quadrupol]    -87239.939570

 energy correction for charged system         0.000000 eV
 dipol+quadrupol energy correction           -0.001578 eV
 added-field ion interaction         -4.792325 eV  (added to PSCEN)


  free energy =  -0.523041245446E+03  energy without entropy=  -0.523018623393E+03


--------------------------------------------------------------------------------------------------------




--------------------------------------- Iteration      4(   2)  ---------------------------------------


    POTLOK:  cpu time    0.1487: real time    0.1495
    SETDIJ:  cpu time    0.0140: real time    0.0140
    EDDIAG:  cpu time   13.0002: real time   13.0055
  RMM-DIIS:  cpu time   21.5902: real time   21.6008
    ORTHCH:  cpu time    4.1683: real time    4.1702
       DOS:  cpu time    0.0012: real time    0.0011
    CHARGE:  cpu time    2.8489: real time    2.8499
    MIXING:  cpu time    0.0044: real time    0.0044
    --------------------------------------------
      LOOP:  cpu time   41.7758: real time   41.7953

 eigenvalue-minimisations  :  6807
 total energy-change (2. order) :-0.8192117E-05  (-0.1020985E-04)
 number of electron    1654.0000754 magnetization 
 augmentation part      760.3669947 magnetization 

 DIPCOR: dipole corrections for dipol
 direction  3 min pos   166,
 dipolmoment           0.000000      0.000000     -0.315237 electrons x Angstroem
 Tr[quadrupol]    -87239.940483

 energy correction for charged system         0.000000 eV
 dipol+quadrupol energy correction           -0.001579 eV
 added-field ion interaction         -4.793966 eV  (added to PSCEN)


 eigenvalues of (default mixing * dielectric matrix)
  average eigenvalue GAMMA=   0.8449
  0.8449

  free energy =  -0.523041253639E+03  energy without entropy=  -0.523018632374E+03


--------------------------------------------------------------------------------------------------------




--------------------------------------- Iteration      4(   3)  ---------------------------------------


    POTLOK:  cpu time    0.1489: real time    0.1498
    SETDIJ:  cpu time    0.0139: real time    0.0139
    EDDIAG:  cpu time   12.8353: real time   12.8406
  RMM-DIIS:  cpu time   18.1282: real time   18.1365
    ORTHCH:  cpu time    4.1682: real time    4.1696
       DOS:  cpu time    0.0011: real time    0.0011
    CHARGE:  cpu time    2.8475: real time    2.8488
    MIXING:  cpu time    0.0046: real time    0.0046
    --------------------------------------------
      LOOP:  cpu time   38.1476: real time   38.1648

 eigenvalue-minimisations  :  5640
 total energy-change (2. order) : 0.4875474E-06  (-0.5122977E-06)
 number of electron    1654.0000754 magnetization 
 augmentation part      760.3670154 magnetization 

 DIPCOR: dipole corrections for dipol
 direction  3 min pos   167,
 dipolmoment           0.000000      0.000000     -0.314945 electrons x Angstroem
 Tr[quadrupol]    -87239.882954

 energy correction for charged system         0.000000 eV
 dipol+quadrupol energy correction           -0.001576 eV
 added-field ion interaction         -6.312372 eV  (added to PSCEN)


 eigenvalues of (default mixing * dielectric matrix)
  average eigenvalue GAMMA=   1.3750
  0.8950  1.8550

  free energy =  -0.523041253151E+03  energy without entropy=  -0.523018630729E+03


--------------------------------------------------------------------------------------------------------




--------------------------------------- Iteration      4(   4)  ---------------------------------------


    POTLOK:  cpu time    0.1488: real time    0.1497
    SETDIJ:  cpu time    0.0140: real time    0.0140
    EDDIAG:  cpu time   12.9271: real time   12.9325
  RMM-DIIS:  cpu time   17.8265: real time   17.8343
    ORTHCH:  cpu time    6.3529: real time    6.5602
       DOS:  cpu time    0.0011: real time    0.0011
    CHARGE:  cpu time    2.9944: real time    3.0438
    MIXING:  cpu time    0.0187: real time    0.0187
    --------------------------------------------
      LOOP:  cpu time   40.2835: real time   40.5543

 eigenvalue-minimisations  :  5543
 total energy-change (2. order) :-0.1020235E-05  (-0.2666971E-06)
 number of electron    1654.0000754 magnetization 
 augmentation part      760.3670075 magnetization 

 DIPCOR: dipole corrections for dipol
 direction  3 min pos   167,
 dipolmoment           0.000000      0.000000     -0.316193 electrons x Angstroem
 Tr[quadrupol]    -87239.882146

 energy correction for charged system         0.000000 eV
 dipol+quadrupol energy correction           -0.001588 eV
 added-field ion interaction         -6.337387 eV  (added to PSCEN)


 eigenvalues of (default mixing * dielectric matrix)
  average eigenvalue GAMMA=   1.1256
  2.0442  0.8671  0.4654

  free energy =  -0.523041254171E+03  energy without entropy=  -0.523018636353E+03


--------------------------------------------------------------------------------------------------------




--------------------------------------- Iteration      4(   5)  ---------------------------------------


    POTLOK:  cpu time    0.2672: real time    0.2825
    SETDIJ:  cpu time    0.0243: real time    0.0243
    EDDIAG:  cpu time   13.8096: real time   13.8150
  RMM-DIIS:  cpu time   13.4205: real time   13.4266
    ORTHCH:  cpu time    4.1432: real time    4.1449
       DOS:  cpu time    0.0011: real time    0.0011
    --------------------------------------------
      LOOP:  cpu time   31.6659: real time   31.6945

 eigenvalue-minimisations  :  2583
 total energy-change (2. order) : 0.1442677E-05  (-0.5355834E-07)
 number of electron    1654.0000754 magnetization 
 augmentation part      760.3670075 magnetization 

 DIPCOR: dipole corrections for dipol
 direction  3 min pos   167,
 dipolmoment           0.000000      0.000000     -0.314935 electrons x Angstroem
 Tr[quadrupol]    -87239.883859

 energy correction for charged system         0.000000 eV
 dipol+quadrupol energy correction           -0.001576 eV
 added-field ion interaction         -6.312160 eV  (added to PSCEN)


  free energy =  -0.523041252729E+03  energy without entropy=  -0.523018629678E+03


--------------------------------------------------------------------------------------------------------




------------------------ aborting loop because EDIFF is reached ----------------------------------------


    CHARGE:  cpu time    2.8986: real time    2.8999
    FORLOC:  cpu time    0.1204: real time    0.1204
    FORNL :  cpu time   10.4792: real time   10.4835
    STRESS:  cpu time   31.3090: real time   31.3226
    FORCOR:  cpu time    0.2244: real time    0.2244
    FORHAR:  cpu time    0.1472: real time    0.1473
    MIXING:  cpu time    0.0051: real time    0.0051
    OFIELD:  cpu time    0.0001: real time    0.0001

  Number of pair interactions contributing to vdW energy:  664720
  Edisp (eV):  -10.88874
    FORVDW:  cpu time    0.0885: real time    0.0885

  FORCE on cell =-STRESS in cart. coord.  units (eV):
  Direction    XX          YY          ZZ          XY          YZ          ZX
  --------------------------------------------------------------------------------------
  Alpha Z  3286.08781  3286.08781  3286.08781
  Ewald  473199.99823472149.06566************   556.15224   289.31828   221.12741
  Hartree515270.14730514259.38817************   503.91357   190.49813   159.43209
  E(xc)   -8631.72544 -8631.61145 -8660.50064     0.06329     0.42325     0.26893
  Local  ************************************ -1063.40501  -467.78193  -374.15250
  n-local -1366.12133 -1369.26822 -1410.45354     0.99542     0.26221     0.21436
  augment 13250.61228 13250.34180 13304.49415     0.09390    -0.40282    -0.06053
  Kinetic 20708.91057 20708.78496 20976.72680     2.20778   -12.06657    -6.82480
  Fock        0.00000     0.00000     0.00000     0.00000     0.00000     0.00000
  vdW       -15.05196   -15.16617   -11.82144    -0.02212    -0.03241    -0.01811
  -------------------------------------------------------------------------------------
  Total       9.74419     9.67693    10.06741    -0.00094     0.21815    -0.01315
  in kB       2.71168     2.69296     2.80162    -0.00026     0.06071    -0.00366
  external pressure =        2.74 kB  Pullay stress =        0.00 kB



--------------------------------------------------------------------------------------------------------



  FREE ENERGIE OF THE ION-ELECTRON SYSTEM (eV)
  ---------------------------------------------------
  free  energy   TOTEN  =      -533.92999698 eV

  energy  without entropy=     -533.90737393  energy(sigma->0) =     -533.91868545
 
 d Force = 0.6839995E-04[ 0.354E-04, 0.101E-03]  d Energy = 0.7292277E-04-0.452E-05
 d Force =-0.3268365E+00[-0.327E+00,-0.327E+00]  d Ewald  =-0.3268372E+00 0.669E-06


--------------------------------------------------------------------------------------------------------


    POTLOK:  cpu time    0.1713: real time    0.1715


--------------------------------------------------------------------------------------------------------


 Conjugate gradient step on ions:
 trial-energy change:   -0.000073  1 .order   -0.000068   -0.000101   -0.000035
  (g-gl).g = 0.107E-03      g.g   = 0.105E-03  gl.gl    = 0.387E-03
 g(Force)  = 0.105E-03   g(Stress)= 0.000E+00 ortho     =-0.163E-05
 gamma     =   0.27536
 trial     =   0.96906
 opt step  =   1.48931  (harmonic =   1.48931) maximal distance =0.00058466
 next E    =  -533.930002   (d E  =  -0.00008)


--------------------------------------------------------------------------------------------------------


  
 reached required accuracy - stopping structural energy minimisation
     LOOP+:  cpu time  268.4930: real time  268.8834
    4ORBIT:  cpu time    0.0000: real time    0.0000

 total amount of memory used by VASP MPI-rank0   363392. kBytes
=======================================================================

   base      :      30000. kBytes
   nonlr-proj:      53713. kBytes
   fftplans  :       9705. kBytes
   grid      :      52925. kBytes
   one-center:       2628. kBytes
   wavefun   :     214421. kBytes
 
  
  
 General timing and accounting informations for this job:
 ========================================================
  
                  Total CPU time used (sec):     2557.995
                            User time (sec):     2547.442
                          System time (sec):       10.553
                         Elapsed time (sec):     2564.398
  
                   Maximum memory used (kb):      783796.
                   Average memory used (kb):           0.
  
                          Minor page faults:       958808
                          Major page faults:            0
                 Voluntary context switches:         5945
