 vasp.5.4.4.18Apr17-6-g9f103f2a35 (build Jun 30 2017 19:19:18) complex          
  
 executed on         MareNostrum4 date 2022.06.16  12:05:20
 running on   48 total cores
 distrk:  each k-point on   48 cores,    1 groups
 distr:  one band on NCORES_PER_BAND=   1 cores,   48 groups


--------------------------------------------------------------------------------------------------------


 INCAR:
 POTCAR:    PAW_PBE H 15Jun2001                   
 POTCAR:    PAW_PBE C 08Apr2002                   

 ----------------------------------------------------------------------------- 
|                                                                             |
|           W    W    AA    RRRRR   N    N  II  N    N   GGGG   !!!           |
|           W    W   A  A   R    R  NN   N  II  NN   N  G    G  !!!           |
|           W    W  A    A  R    R  N N  N  II  N N  N  G       !!!           |
|           W WW W  AAAAAA  RRRRR   N  N N  II  N  N N  G  GGG   !            |
|           WW  WW  A    A  R   R   N   NN  II  N   NN  G    G                |
|           W    W  A    A  R    R  N    N  II  N    N   GGGG   !!!           |
|                                                                             |
|      For optimal performance we recommend to set                            |
|        NCORE= 4 - approx SQRT( number of cores)                             |
|      NCORE specifies how many cores store one orbital (NPAR=cpu/NCORE).     |
|      This setting can  greatly improve the performance of VASP for DFT.     |
|      The default,   NCORE=1            might be grossly inefficient         |
|      on modern multi-core architectures or massively parallel machines.     |
|      Do your own testing !!!!                                               |
|      Unfortunately you need to use the default for GW and RPA calculations. |
|      (for HF NCORE is supported but not extensively tested yet)             |
|                                                                             |
 ----------------------------------------------------------------------------- 

 POTCAR:    PAW_PBE H 15Jun2001                   
  local pseudopotential read in
  atomic valenz-charges read in
  non local Contribution for L=           0  read in
    real space projection operators read in
  non local Contribution for L=           0  read in
    real space projection operators read in
  non local Contribution for L=           1  read in
    real space projection operators read in
    PAW grid and wavefunctions read in
 
   number of l-projection  operators is LMAX  =           3
   number of lm-projection operators is LMMAX =           5
 
 POTCAR:    PAW_PBE C 08Apr2002                   
  local pseudopotential read in
  partial core-charges read in
  partial kinetic energy density read in
  atomic valenz-charges read in
  non local Contribution for L=           0  read in
    real space projection operators read in
  non local Contribution for L=           0  read in
    real space projection operators read in
  non local Contribution for L=           1  read in
    real space projection operators read in
  non local Contribution for L=           1  read in
    real space projection operators read in
    PAW grid and wavefunctions read in
 
   number of l-projection  operators is LMAX  =           4
   number of lm-projection operators is LMMAX =           8
 
 Optimization of the real space projectors (new method)

 maximal supplied QI-value         = 34.20
 optimisation between [QCUT,QGAM] = [ 10.60, 21.55] = [ 31.48,130.03] Ry 
 Optimized for a Real-space Cutoff    1.23 Angstroem

   l    n(q)    QCUT    max X(q) W(low)/X(q) W(high)/X(q)  e(spline) 
   0      8    10.603    19.460    0.37E-03    0.59E-03    0.23E-06
   0      8    10.603    12.209    0.35E-03    0.56E-03    0.22E-06
   1      7    10.603     4.655    0.70E-04    0.28E-03    0.29E-06
 Optimization of the real space projectors (new method)

 maximal supplied QI-value         = 25.13
 optimisation between [QCUT,QGAM] = [ 10.81, 21.61] = [ 32.71,130.83] Ry 
 Optimized for a Real-space Cutoff    1.23 Angstroem

   l    n(q)    QCUT    max X(q) W(low)/X(q) W(high)/X(q)  e(spline) 
   0      8    10.807   115.676    0.36E-03    0.72E-03    0.24E-06
   0      8    10.807    87.132    0.35E-03    0.71E-03    0.24E-06
   1      7    10.807     4.429    0.19E-03    0.39E-03    0.11E-06
   1      7    10.807     2.733    0.14E-03    0.28E-03    0.13E-06
  PAW_PBE H 15Jun2001                   :
 energy of atom  1       EATOM=  -12.4884
 kinetic energy error for atom=    0.0045 (will be added to EATOM!!)
  PAW_PBE C 08Apr2002                   :
 energy of atom  2       EATOM= -147.1560
 kinetic energy error for atom=    0.0116 (will be added to EATOM!!)
 
 
 POSCAR: H  C                                    
  positions in cartesian coordinates
  No initial velocities read in
 exchange correlation table for  LEXCH =        8
   RHO(1)=    0.500       N(1)  =     2000
   RHO(2)=  100.500       N(2)  =     4000
 


--------------------------------------------------------------------------------------------------------


 ion  position               nearest neighbor table
   1  0.208  0.591  0.320-  27 1.09
   2  0.269  0.587  0.256-  27 1.09
   3  0.249  0.665  0.293-  27 1.09
   4  0.295  0.627  0.402-  28 1.10
   5  0.356  0.624  0.338-  28 1.10
   6  0.338  0.502  0.324-  29 1.10
   7  0.274  0.504  0.386-  29 1.10
   8  0.357  0.542  0.471-  30 1.10
   9  0.421  0.543  0.410-  30 1.10
  10  0.407  0.420  0.392-  31 1.10
  11  0.341  0.418  0.451-  31 1.10
  12  0.419  0.457  0.540-  32 1.10
  13  0.485  0.461  0.482-  32 1.10
  14  0.475  0.339  0.461-  33 1.10
  15  0.409  0.334  0.519-  33 1.10
  16  0.485  0.374  0.609-  34 1.10
  17  0.551  0.382  0.551-  34 1.10
  18  0.545  0.259  0.529-  35 1.10
  19  0.480  0.251  0.588-  35 1.10
  20  0.556  0.294  0.677-  36 1.10
  21  0.620  0.304  0.618-  36 1.10
  22  0.617  0.180  0.595-  37 1.10
  23  0.554  0.171  0.656-  37 1.10
  24  0.695  0.224  0.682-  38 1.09
  25  0.665  0.143  0.702-  38 1.09
  26  0.632  0.214  0.743-  38 1.09
  27  0.256  0.611  0.303-   3 1.09   2 1.09   1 1.09  28 1.52
  28  0.310  0.601  0.356-   4 1.10   5 1.10  27 1.52  29 1.53
  29  0.321  0.527  0.370-   6 1.10   7 1.10  28 1.53  30 1.53
  30  0.374  0.518  0.425-   8 1.10   9 1.10  29 1.53  31 1.53
  31  0.388  0.443  0.438-  10 1.10  11 1.10  32 1.53  30 1.53
  32  0.439  0.435  0.494-  12 1.10  13 1.10  31 1.53  33 1.53
  33  0.455  0.361  0.506-  14 1.10  15 1.10  34 1.53  32 1.53
  34  0.506  0.353  0.563-  16 1.10  17 1.10  35 1.53  33 1.53
  35  0.524  0.280  0.575-  18 1.10  19 1.10  34 1.53  36 1.53
  36  0.576  0.274  0.631-  20 1.10  21 1.10  37 1.53  35 1.53
  37  0.597  0.201  0.641-  22 1.10  23 1.10  38 1.52  36 1.53
  38  0.651  0.195  0.696-  25 1.09  26 1.09  24 1.09  37 1.52
 
  LATTYP: Found a simple cubic cell.
 ALAT       =    20.0000000000
  
  Lattice vectors:
  
 A1 = (  20.0000000000,   0.0000000000,   0.0000000000)
 A2 = (   0.0000000000,  20.0000000000,   0.0000000000)
 A3 = (   0.0000000000,   0.0000000000,  20.0000000000)


Analysis of symmetry for initial positions (statically):
=====================================================================
 Subroutine PRICEL returns:
 Original cell was already a primitive cell.
 

 Routine SETGRP: Setting up the symmetry group for a 
 simple cubic supercell.


 Subroutine GETGRP returns: Found  1 space group operations
 (whereof  1 operations were pure point group operations)
 out of a pool of 48 trial point group operations.


The static configuration has the point symmetry C_1 .


Analysis of symmetry for dynamics (positions and initial velocities):
=====================================================================
 Subroutine PRICEL returns:
 Original cell was already a primitive cell.
 

 Routine SETGRP: Setting up the symmetry group for a 
 simple cubic supercell.


 Subroutine GETGRP returns: Found  1 space group operations
 (whereof  1 operations were pure point group operations)
 out of a pool of 48 trial point group operations.


The dynamic configuration has the point symmetry C_1 .


Analysis of constrained symmetry for selective dynamics:
=====================================================================
 Subroutine PRICEL returns:
 Original cell was already a primitive cell.
 

 Routine SETGRP: Setting up the symmetry group for a 
 simple cubic supercell.


 Subroutine GETGRP returns: Found  1 space group operations
 (whereof  1 operations were pure point group operations)
 out of a pool of 48 trial point group operations.


The constrained configuration has the point symmetry C_1 .


 Subroutine INISYM returns: Found  1 space group operations
 (whereof  1 operations are pure point group operations),
 and found     1 'primitive' translations

 
 
 KPOINTS: K-POINTS                                

Automatic generation of k-mesh.
Space group operators:
 irot       det(A)        alpha          n_x          n_y          n_z        tau_x        tau_y        tau_z
    1     1.000000     0.000000     1.000000     0.000000     0.000000     0.000000     0.000000     0.000000
 
 Subroutine IBZKPT returns following result:
 ===========================================
 
 Found      1 irreducible k-points:
 
 Following reciprocal coordinates:
            Coordinates               Weight
  0.000000  0.000000  0.000000      1.000000
 
 Following cartesian coordinates:
            Coordinates               Weight
  0.000000  0.000000  0.000000      1.000000
 


--------------------------------------------------------------------------------------------------------




 Dimension of arrays:
   k-points           NKPTS =      1   k-points in BZ     NKDIM =      1   number of bands    NBANDS=     96
   number of dos      NEDOS =    301   number of ions     NIONS =     38
   non local maximal  LDIM  =      4   non local SUM 2l+1 LMDIM =      8
   total plane-waves  NPLWV = ******
   max r-space proj   IRMAX =   1268   max aug-charges    IRDMAX=   2057
   dimension x,y,z NGX =   108 NGY =  108 NGZ =  108
   dimension x,y,z NGXF=   216 NGYF=  216 NGZF=  216
   support grid    NGXF=   216 NGYF=  216 NGZF=  216
   ions per type =              26  12
   NGX,Y,Z   is equivalent  to a cutoff of   8.98,  8.98,  8.98 a.u.
   NGXF,Y,Z  is equivalent  to a cutoff of  17.95, 17.95, 17.95 a.u.

 SYSTEM =  x                                       
 POSCAR =  H  C                                    

 Startparameter for this run:
   NWRITE =      0    write-flag & timer
   PREC   = normal    normal or accurate (medium, high low for compatibility)
   ISTART =      0    job   : 0-new  1-cont  2-samecut
   ICHARG =      2    charge: 1-file 2-atom 10-const
   ISPIN  =      1    spin polarized calculation?
   LNONCOLLINEAR =      F non collinear calculations
   LSORBIT =      F    spin-orbit coupling
   INIWAV =      1    electr: 0-lowe 1-rand  2-diag
   LASPH  =      F    aspherical Exc in radial PAW
   METAGGA=      F    non-selfconsistent MetaGGA calc.

 Electronic Relaxation 1
   ENCUT  =  450.0 eV  33.07 Ry    5.75 a.u.  34.59 34.59 34.59*2*pi/ulx,y,z
   ENINI  =  450.0     initial cutoff
   ENAUG  =  644.9 eV  augmentation charge cutoff
   NELM   =    100;   NELMIN=  5; NELMDL= -7     # of ELM steps 
   EDIFF  = 0.1E-05   stopping-criterion for ELM
   LREAL  =      T    real-space projection
   NLSPLINE    = F    spline interpolate recip. space projectors
   LCOMPAT=      F    compatible to vasp.4.4
   GGA_COMPAT  = T    GGA compatible to vasp.4.4-vasp.4.6
   LMAXPAW     = -100 max onsite density
   LMAXMIX     =    2 max onsite mixed and CHGCAR
   VOSKOWN=      0    Vosko Wilk Nusair interpolation
   ROPT   =   -0.00050  -0.00050
 Ionic relaxation
   EDIFFG = -.2E-01   stopping-criterion for IOM
   NSW    =    300    number of steps for IOM
   NBLOCK =      1;   KBLOCK =    300    inner block; outer block 
   IBRION =      2    ionic relax: 0-MD 1-quasi-New 2-CG
   NFREE  =      2    steps in history (QN), initial steepest desc. (CG)
   ISIF   =      2    stress and relaxation
   IWAVPR =     11    prediction:  0-non 1-charg 2-wave 3-comb
   ISYM   =      2    0-nonsym 1-usesym 2-fastsym
   LCORR  =      T    Harris-Foulkes like correction to forces

   POTIM  = 0.1500    time-step for ionic-motion
   TEIN   =    0.0    initial temperature
   TEBEG  =    0.0;   TEEND  =   0.0 temperature during run
   SMASS  =  -3.00    Nose mass-parameter (am)
   estimated Nose-frequenzy (Omega)   =  0.10E-29 period in steps =****** mass=  -0.914E-26a.u.
   SCALEE = 1.0000    scale energy and forces
   NPACO  =    256;   APACO  = 16.0  distance and # of slots for P.C.
   PSTRESS=    0.0 pullay stress

  Mass of Ions in am
   POMASS =   1.00 12.01
  Ionic Valenz
   ZVAL   =   1.00  4.00
  Atomic Wigner-Seitz radii
   RWIGS  =  -1.00 -1.00
  virtual crystal weights 
   VCA    =   1.00  1.00
   NELECT =      74.0000    total number of electrons
   NUPDOWN=      -1.0000    fix difference up-down

 DOS related values:
   EMIN   =  10.00;   EMAX   =-10.00  energy-range for DOS
   EFERMI =   0.00
   ISMEAR =     0;   SIGMA  =   0.03  broadening in eV -4-tet -1-fermi 0-gaus

 Electronic relaxation 2 (details)
   IALGO  =     38    algorithm
   LDIAG  =      T    sub-space diagonalisation (order eigenvalues)
   LSUBROT=      F    optimize rotation matrix (better conditioning)
   TURBO    =      0    0=normal 1=particle mesh
   IRESTART =      0    0=no restart 2=restart with 2 vectors
   NREBOOT  =      0    no. of reboots
   NMIN     =      0    reboot dimension
   EREF     =   0.00    reference energy to select bands
   IMIX   =      4    mixing-type and parameters
     AMIX     =   0.40;   BMIX     =  1.00
     AMIX_MAG =   1.60;   BMIX_MAG =  1.00
     AMIN     =   0.10
     WC   =   100.;   INIMIX=   1;  MIXPRE=   1;  MAXMIX= -45

 Intra band minimization:
   WEIMIN = 0.0010     energy-eigenvalue tresh-hold
   EBREAK =  0.26E-08  absolut break condition
   DEPER  =   0.30     relativ break condition  

   TIME   =   0.40     timestep for ELM

  volume/ion in A,a.u.               =     210.53      1420.70
  Fermi-wavevector in a.u.,A,eV,Ry     =   0.343655  0.649413  1.606827  0.118098
  Thomas-Fermi vector in A             =   1.250014
 
 Write flags
   LWAVE        =      F    write WAVECAR
   LDOWNSAMPLE  =      F    k-point downsampling of WAVECAR
   LCHARG       =      F    write CHGCAR
   LVTOT        =      F    write LOCPOT, total local potential
   LVHAR        =      F    write LOCPOT, Hartree potential only
   LELF         =      F    write electronic localiz. function (ELF)
   LORBIT       =      0    0 simple, 1 ext, 2 COOP (PROOUT), +10 PAW based schemes


 Dipole corrections
   LMONO  =      F    monopole corrections only (constant potential shift)
   LDIPOL =      F    correct potential (dipole corrections)
   IDIPOL =      0    1-x, 2-y, 3-z, 4-all directions 
   EPSILON=  1.0000000 bulk dielectric constant

 Exchange correlation treatment:
   GGA     =    PE    GGA type
   LEXCH   =     8    internal setting for exchange type
   VOSKOWN=      0    Vosko Wilk Nusair interpolation
   LHFCALC =     F    Hartree Fock is set to
   LHFONE  =     F    Hartree Fock one center treatment
   AEXX    =    0.0000 exact exchange contribution

 Linear response parameters
   LEPSILON=     F    determine dielectric tensor
   LRPA    =     F    only Hartree local field effects (RPA)
   LNABLA  =     F    use nabla operator in PAW spheres
   LVEL    =     F    velocity operator in full k-point grid
   LINTERFAST=   F  fast interpolation
   KINTER  =     0    interpolate to denser k-point grid
   CSHIFT  =0.1000    complex shift for real part using Kramers Kronig
   OMEGAMAX=  -1.0    maximum frequency
   DEG_THRESHOLD= 0.2000000E-02 threshold for treating states as degnerate
   RTIME   =   -0.100 relaxation time in fs
  (WPLASMAI=    0.000 imaginary part of plasma frequency in eV, 0.658/RTIME)
   DFIELD  = 0.0000000 0.0000000 0.0000000 field for delta impulse in time
 
 Orbital magnetization related:
   ORBITALMAG=     F  switch on orbital magnetization
   LCHIMAG   =     F  perturbation theory with respect to B field
   DQ        =  0.001000  dq finite difference perturbation B field
   LLRAUG    =     F  two centre corrections for induced B field



--------------------------------------------------------------------------------------------------------


 conjugate gradient relaxation of ions
   using selective dynamics as specified on POSCAR
   WARNING: If single coordinates had been selected the selection of coordinates
            is made according to the corresponding   d i r e c t   coordinates!
            Don't support selection of single cartesian coordinates -- sorry ...
  !
 charge density and potential will be updated during run
 non-spin polarized calculation
 Variant of blocked Davidson
 Davidson routine will perform the subspace rotation
 perform sub-space diagonalisation
    after iterative eigenvector-optimisation
 modified Broyden-mixing scheme, WC =      100.0
 initial mixing is a Kerker type mixing with AMIX =  0.4000 and BMIX =      1.0000
 Hartree-type preconditioning will be used
 using additional bands           59
 real space projection scheme for non local part
 use partial core corrections
 calculate Harris-corrections to forces 
   (improved forces if not selfconsistent)
 use gradient corrections 
 use of overlap-Matrix (Vanderbilt PP)
 Gauss-broadening in eV      SIGMA  =   0.03


--------------------------------------------------------------------------------------------------------


  energy-cutoff  :      450.00
  volume of cell :     8000.00
      direct lattice vectors                 reciprocal lattice vectors
    20.000000000  0.000000000  0.000000000     0.050000000  0.000000000  0.000000000
     0.000000000 20.000000000  0.000000000     0.000000000  0.050000000  0.000000000
     0.000000000  0.000000000 20.000000000     0.000000000  0.000000000  0.050000000

  length of vectors
    20.000000000 20.000000000 20.000000000     0.050000000  0.050000000  0.050000000


 
 k-points in units of 2pi/SCALE and weight: K-POINTS                                
   0.00000000  0.00000000  0.00000000       1.000
 
 k-points in reciprocal lattice and weights: K-POINTS                                
   0.00000000  0.00000000  0.00000000       1.000
 
 position of ions in fractional coordinates (direct lattice) 
   0.20784949  0.59122444  0.32028042
   0.26919571  0.58667881  0.25631671
   0.24903016  0.66476850  0.29302376
   0.29502383  0.62727558  0.40183609
   0.35632892  0.62439164  0.33844149
   0.33758779  0.50194337  0.32434463
   0.27430982  0.50378539  0.38584060
   0.35677706  0.54150565  0.47116385
   0.42056415  0.54254014  0.41021376
   0.40661412  0.42003672  0.39205079
   0.34112556  0.41797091  0.45121385
   0.41921907  0.45701416  0.54026185
   0.48489610  0.46149793  0.48152981
   0.47507232  0.33860666  0.46056909
   0.40900579  0.33361979  0.51892012
   0.48480688  0.37430353  0.60933853
   0.55080872  0.38192119  0.55129969
   0.54460476  0.25864561  0.52850065
   0.47961033  0.25116831  0.58777458
   0.55556817  0.29383513  0.67730674
   0.62034946  0.30382231  0.61826445
   0.61705754  0.18019423  0.59471887
   0.55386378  0.17085371  0.65563013
   0.69532267  0.22378913  0.68196425
   0.66509066  0.14308562  0.70245725
   0.63197354  0.21438956  0.74335937
   0.25578271  0.61143214  0.30324820
   0.30972556  0.60135375  0.35583835
   0.32138908  0.52719699  0.37024333
   0.37397540  0.51759377  0.42490501
   0.38780666  0.44348792  0.43790825
   0.43879003  0.43461267  0.49419138
   0.45493754  0.36086284  0.50645687
   0.50562578  0.35318826  0.56320714
   0.52442984  0.27998503  0.57480507
   0.57626813  0.27364688  0.63070428
   0.59737174  0.20101322  0.64143817
   0.65053336  0.19537334  0.69551055
 
 position of ions in cartesian coordinates  (Angst):
   4.15698984 11.82448889  6.40560841
   5.38391413 11.73357617  5.12633412
   4.98060314 13.29536999  5.86047511
   5.90047655 12.54551153  8.03672170
   7.12657850 12.48783283  6.76882975
   6.75175572 10.03886749  6.48689252
   5.48619631 10.07570775  7.71681194
   7.13554127 10.83011291  9.42327698
   8.41128299 10.85080285  8.20427526
   8.13228241  8.40073442  7.84101584
   6.82251129  8.35941817  9.02427696
   8.38438131  9.14028326 10.80523694
   9.69792205  9.22995854  9.63059620
   9.50144637  6.77213315  9.21138188
   8.18011577  6.67239574 10.37840248
   9.69613766  7.48607059 12.18677059
  11.01617437  7.63842381 11.02599387
  10.89209527  5.17291217 10.57001298
   9.59220667  5.02336616 11.75549158
  11.11136338  5.87670262 13.54613487
  12.40698927  6.07644615 12.36528897
  12.34115087  3.60388465 11.89437738
  11.07727569  3.41707411 13.11260256
  13.90645331  4.47578267 13.63928494
  13.30181319  2.86171245 14.04914506
  12.63947088  4.28779126 14.86718737
   5.11565420 12.22864284  6.06496405
   6.19451115 12.02707498  7.11676710
   6.42778162 10.54393972  7.40486663
   7.47950804 10.35187538  8.49810021
   7.75613326  8.86975835  8.75816499
   8.77580060  8.69225334  9.88382765
   9.09875077  7.21725687 10.12913748
  10.11251550  7.06376520 11.26414275
  10.48859675  5.59970061 11.49610150
  11.52536261  5.47293758 12.61408564
  11.94743482  4.02026448 12.82876343
  13.01066729  3.90746681 13.91021096
 


--------------------------------------------------------------------------------------------------------


 k-point  1 :   0.0000 0.0000 0.0000  plane waves:  173541

 maximum and minimum number of plane-waves per node :    173541   173541

 maximum number of plane-waves:    173541
 maximum index in each direction: 
   IXMAX=   34   IYMAX=   34   IZMAX=   34
   IXMIN=  -34   IYMIN=  -34   IZMIN=  -34


 serial   3D FFT for wavefunctions
 parallel 3D FFT for charge:
    minimum data exchange during FFTs selected (reduces bandwidth)


 total amount of memory used by VASP MPI-rank0   115437. kBytes
=======================================================================

   base      :      30000. kBytes
   nonlr-proj:       3146. kBytes
   fftplans  :      12889. kBytes
   grid      :      63725. kBytes
   one-center:        116. kBytes
   wavefun   :       5561. kBytes
 
     INWAV:  cpu time    0.0000: real time    0.0003
 Broyden mixing: mesh for mixing (old mesh)
   NGX = 69   NGY = 69   NGZ = 69
  (NGX  =216   NGY  =216   NGZ  =216)
  gives a total of 328509 points

 initial charge density was supplied:
 charge density of overlapping atoms calculated
 number of electron      74.0000000 magnetization 
 keeping initial charge density in first step


--------------------------------------------------------------------------------------------------------


 Maximum index for non-local projection operator         1192
 Maximum index for augmentation-charges          175 (set IRDMAX)


--------------------------------------------------------------------------------------------------------


 First call to EWALD:  gamma=   0.089
 Maximum number of real-space cells 3x 3x 3
 Maximum number of reciprocal cells 3x 3x 3

    FEWALD:  cpu time    0.0021: real time    0.0029


--------------------------------------- Iteration      1(   1)  ---------------------------------------


    POTLOK:  cpu time    0.2083: real time    0.2172
    SETDIJ:  cpu time    0.0053: real time    0.0075
     EDDAV:  cpu time    1.5186: real time    1.5540
       DOS:  cpu time    0.0007: real time    0.0023
    --------------------------------------------
      LOOP:  cpu time    1.7329: real time    1.7810

 eigenvalue-minimisations  :   288
 total energy-change (2. order) : 0.1057492E+03  (-0.2020550E+04)
 number of electron      74.0000000 magnetization 
 augmentation part       74.0000000 magnetization 

 Free energy of the ion-electron system (eV)
  ---------------------------------------------------
  alpha Z        PSCENC =         2.86546965
  Ewald energy   TEWEN  =      5252.26810753
  -Hartree energ DENC   =     -6534.94721626
  -exchange      EXHF   =         0.00000000
  -V(xc)+E(xc)   XCENC  =       219.52049949
  PAW double counting   =      1357.74926990    -1364.81296199
  entropy T*S    EENTRO =        -0.00000000
  eigenvalues    EBANDS =      -917.20782533
  atomic energy  EATOM  =      2090.31388239
  Solvation  Ediel_sol  =         0.00000000
  ---------------------------------------------------
  free energy    TOTEN  =       105.74922538 eV

  energy without entropy =      105.74922538  energy(sigma->0) =      105.74922538


--------------------------------------------------------------------------------------------------------




--------------------------------------- Iteration      1(   2)  ---------------------------------------


     EDDAV:  cpu time    1.7007: real time    1.7029
       DOS:  cpu time    0.0002: real time    0.0002
    --------------------------------------------
      LOOP:  cpu time    1.7009: real time    1.7031

 eigenvalue-minimisations  :   336
 total energy-change (2. order) :-0.3160292E+03  (-0.3140016E+03)
 number of electron      74.0000000 magnetization 
 augmentation part       74.0000000 magnetization 

 Free energy of the ion-electron system (eV)
  ---------------------------------------------------
  alpha Z        PSCENC =         2.86546965
  Ewald energy   TEWEN  =      5252.26810753
  -Hartree energ DENC   =     -6534.94721626
  -exchange      EXHF   =         0.00000000
  -V(xc)+E(xc)   XCENC  =       219.52049949
  PAW double counting   =      1357.74926990    -1364.81296199
  entropy T*S    EENTRO =        -0.00000000
  eigenvalues    EBANDS =     -1233.23703063
  atomic energy  EATOM  =      2090.31388239
  Solvation  Ediel_sol  =         0.00000000
  ---------------------------------------------------
  free energy    TOTEN  =      -210.27997992 eV

  energy without entropy =     -210.27997992  energy(sigma->0) =     -210.27997992


--------------------------------------------------------------------------------------------------------




--------------------------------------- Iteration      1(   3)  ---------------------------------------


     EDDAV:  cpu time    1.4987: real time    1.4994
       DOS:  cpu time    0.0002: real time    0.0002
    --------------------------------------------
      LOOP:  cpu time    1.4989: real time    1.4996

 eigenvalue-minimisations  :   288
 total energy-change (2. order) :-0.1885633E+02  (-0.1879678E+02)
 number of electron      74.0000000 magnetization 
 augmentation part       74.0000000 magnetization 

 Free energy of the ion-electron system (eV)
  ---------------------------------------------------
  alpha Z        PSCENC =         2.86546965
  Ewald energy   TEWEN  =      5252.26810753
  -Hartree energ DENC   =     -6534.94721626
  -exchange      EXHF   =         0.00000000
  -V(xc)+E(xc)   XCENC  =       219.52049949
  PAW double counting   =      1357.74926990    -1364.81296199
  entropy T*S    EENTRO =        -0.00000000
  eigenvalues    EBANDS =     -1252.09335815
  atomic energy  EATOM  =      2090.31388239
  Solvation  Ediel_sol  =         0.00000000
  ---------------------------------------------------
  free energy    TOTEN  =      -229.13630744 eV

  energy without entropy =     -229.13630744  energy(sigma->0) =     -229.13630744


--------------------------------------------------------------------------------------------------------




--------------------------------------- Iteration      1(   4)  ---------------------------------------


     EDDAV:  cpu time    1.6949: real time    1.6955
       DOS:  cpu time    0.0002: real time    0.0002
    --------------------------------------------
      LOOP:  cpu time    1.6951: real time    1.6957

 eigenvalue-minimisations  :   336
 total energy-change (2. order) :-0.3890327E+00  (-0.3886826E+00)
 number of electron      74.0000000 magnetization 
 augmentation part       74.0000000 magnetization 

 Free energy of the ion-electron system (eV)
  ---------------------------------------------------
  alpha Z        PSCENC =         2.86546965
  Ewald energy   TEWEN  =      5252.26810753
  -Hartree energ DENC   =     -6534.94721626
  -exchange      EXHF   =         0.00000000
  -V(xc)+E(xc)   XCENC  =       219.52049949
  PAW double counting   =      1357.74926990    -1364.81296199
  entropy T*S    EENTRO =        -0.00000000
  eigenvalues    EBANDS =     -1252.48239081
  atomic energy  EATOM  =      2090.31388239
  Solvation  Ediel_sol  =         0.00000000
  ---------------------------------------------------
  free energy    TOTEN  =      -229.52534010 eV

  energy without entropy =     -229.52534010  energy(sigma->0) =     -229.52534010


--------------------------------------------------------------------------------------------------------




--------------------------------------- Iteration      1(   5)  ---------------------------------------


     EDDAV:  cpu time    1.4797: real time    1.4823
       DOS:  cpu time    0.0003: real time    0.0003
    --------------------------------------------
      LOOP:  cpu time    1.4800: real time    1.4826

 eigenvalue-minimisations  :   288
 total energy-change (2. order) :-0.8060306E-03  (-0.8059839E-03)
 number of electron      74.0000000 magnetization 
 augmentation part       74.0000000 magnetization 

 Free energy of the ion-electron system (eV)
  ---------------------------------------------------
  alpha Z        PSCENC =         2.86546965
  Ewald energy   TEWEN  =      5252.26810753
  -Hartree energ DENC   =     -6534.94721626
  -exchange      EXHF   =         0.00000000
  -V(xc)+E(xc)   XCENC  =       219.52049949
  PAW double counting   =      1357.74926990    -1364.81296199
  entropy T*S    EENTRO =        -0.00000000
  eigenvalues    EBANDS =     -1252.48319684
  atomic energy  EATOM  =      2090.31388239
  Solvation  Ediel_sol  =         0.00000000
  ---------------------------------------------------
  free energy    TOTEN  =      -229.52614613 eV

  energy without entropy =     -229.52614613  energy(sigma->0) =     -229.52614613


--------------------------------------------------------------------------------------------------------




--------------------------------------- Iteration      1(   6)  ---------------------------------------


     EDDAV:  cpu time    1.6975: real time    1.7110
       DOS:  cpu time    0.0002: real time    0.0002
    --------------------------------------------
      LOOP:  cpu time    1.6977: real time    1.7112

 eigenvalue-minimisations  :   336
 total energy-change (2. order) :-0.1791670E-05  (-0.1790991E-05)
 number of electron      74.0000000 magnetization 
 augmentation part       74.0000000 magnetization 

 Free energy of the ion-electron system (eV)
  ---------------------------------------------------
  alpha Z        PSCENC =         2.86546965
  Ewald energy   TEWEN  =      5252.26810753
  -Hartree energ DENC   =     -6534.94721626
  -exchange      EXHF   =         0.00000000
  -V(xc)+E(xc)   XCENC  =       219.52049949
  PAW double counting   =      1357.74926990    -1364.81296199
  entropy T*S    EENTRO =        -0.00000000
  eigenvalues    EBANDS =     -1252.48319863
  atomic energy  EATOM  =      2090.31388239
  Solvation  Ediel_sol  =         0.00000000
  ---------------------------------------------------
  free energy    TOTEN  =      -229.52614792 eV

  energy without entropy =     -229.52614792  energy(sigma->0) =     -229.52614792


--------------------------------------------------------------------------------------------------------




--------------------------------------- Iteration      1(   7)  ---------------------------------------


     EDDAV:  cpu time    1.4858: real time    1.4873
       DOS:  cpu time    0.0002: real time    0.0002
    CHARGE:  cpu time    0.1078: real time    0.1105
    MIXING:  cpu time    0.0057: real time    0.0063
    --------------------------------------------
      LOOP:  cpu time    1.5996: real time    1.6043

 eigenvalue-minimisations  :   288
 total energy-change (2. order) :-0.9182259E-08  (-0.8625143E-08)
 number of electron      74.0000006 magnetization 
 augmentation part        2.0344673 magnetization 

 Broyden mixing:
  rms(total) = 0.23510E+01    rms(broyden)= 0.23505E+01
  rms(prec ) = 0.26155E+01
  weight for this iteration     100.00

 Free energy of the ion-electron system (eV)
  ---------------------------------------------------
  alpha Z        PSCENC =         2.86546965
  Ewald energy   TEWEN  =      5252.26810753
  -Hartree energ DENC   =     -6534.94721626
  -exchange      EXHF   =         0.00000000
  -V(xc)+E(xc)   XCENC  =       219.52049949
  PAW double counting   =      1357.74926990    -1364.81296199
  entropy T*S    EENTRO =        -0.00000000
  eigenvalues    EBANDS =     -1252.48319864
  atomic energy  EATOM  =      2090.31388239
  Solvation  Ediel_sol  =         0.00000000
  ---------------------------------------------------
  free energy    TOTEN  =      -229.52614793 eV

  energy without entropy =     -229.52614793  energy(sigma->0) =     -229.52614793


--------------------------------------------------------------------------------------------------------




--------------------------------------- Iteration      1(   8)  ---------------------------------------


    POTLOK:  cpu time    0.1771: real time    0.1778
    SETDIJ:  cpu time    0.0019: real time    0.0019
     EDDAV:  cpu time    1.4756: real time    1.4758
       DOS:  cpu time    0.0002: real time    0.0002
    CHARGE:  cpu time    0.1059: real time    0.1060
    MIXING:  cpu time    0.0084: real time    0.0086
    --------------------------------------------
      LOOP:  cpu time    1.7691: real time    1.7703

 eigenvalue-minimisations  :   288
 total energy-change (2. order) : 0.1869542E+02  (-0.3064502E+01)
 number of electron      74.0000006 magnetization 
 augmentation part        1.8676684 magnetization 

 Broyden mixing:
  rms(total) = 0.12473E+01    rms(broyden)= 0.12472E+01
  rms(prec ) = 0.13557E+01
  weight for this iteration     100.00

 eigenvalues of (default mixing * dielectric matrix)
  average eigenvalue GAMMA=   1.5745
  1.5745

 Free energy of the ion-electron system (eV)
  ---------------------------------------------------
  alpha Z        PSCENC =         2.86546965
  Ewald energy   TEWEN  =      5252.26810753
  -Hartree energ DENC   =     -6704.42086785
  -exchange      EXHF   =         0.00000000
  -V(xc)+E(xc)   XCENC  =       227.55948946
  PAW double counting   =      2606.29069258    -2614.84184465
  entropy T*S    EENTRO =        -0.00000000
  eigenvalues    EBANDS =     -1070.86565531
  atomic energy  EATOM  =      2090.31388239
  Solvation  Ediel_sol  =         0.00000000
  ---------------------------------------------------
  free energy    TOTEN  =      -210.83072620 eV

  energy without entropy =     -210.83072620  energy(sigma->0) =     -210.83072620


--------------------------------------------------------------------------------------------------------




--------------------------------------- Iteration      1(   9)  ---------------------------------------


    POTLOK:  cpu time    0.1797: real time    0.1805
    SETDIJ:  cpu time    0.0019: real time    0.0019
     EDDAV:  cpu time    1.6900: real time    1.6907
       DOS:  cpu time    0.0002: real time    0.0002
    CHARGE:  cpu time    0.1074: real time    0.1075
    MIXING:  cpu time    0.0058: real time    0.0058
    --------------------------------------------
      LOOP:  cpu time    1.9850: real time    1.9865

 eigenvalue-minimisations  :   336
 total energy-change (2. order) : 0.4299456E+01  (-0.1510892E+01)
 number of electron      74.0000006 magnetization 
 augmentation part        1.7572306 magnetization 

 Broyden mixing:
  rms(total) = 0.58600E+00    rms(broyden)= 0.58584E+00
  rms(prec ) = 0.62012E+00
  weight for this iteration     100.00

 eigenvalues of (default mixing * dielectric matrix)
  average eigenvalue GAMMA=   1.9869
  1.6816  2.2922

 Free energy of the ion-electron system (eV)
  ---------------------------------------------------
  alpha Z        PSCENC =         2.86546965
  Ewald energy   TEWEN  =      5252.26810753
  -Hartree energ DENC   =     -6838.51576769
  -exchange      EXHF   =         0.00000000
  -V(xc)+E(xc)   XCENC  =       234.84847601
  PAW double counting   =      4241.73666009    -4250.91013069
  entropy T*S    EENTRO =        -0.00000000
  eigenvalues    EBANDS =      -939.13796707
  atomic energy  EATOM  =      2090.31388239
  Solvation  Ediel_sol  =         0.00000000
  ---------------------------------------------------
  free energy    TOTEN  =      -206.53126977 eV

  energy without entropy =     -206.53126977  energy(sigma->0) =     -206.53126977


--------------------------------------------------------------------------------------------------------




--------------------------------------- Iteration      1(  10)  ---------------------------------------


    POTLOK:  cpu time    0.1846: real time    0.1851
    SETDIJ:  cpu time    0.0016: real time    0.0016
     EDDAV:  cpu time    1.4843: real time    1.4845
       DOS:  cpu time    0.0002: real time    0.0002
    CHARGE:  cpu time    0.1073: real time    0.1073
    MIXING:  cpu time    0.0060: real time    0.0060
    --------------------------------------------
      LOOP:  cpu time    1.7840: real time    1.7847

 eigenvalue-minimisations  :   288
 total energy-change (2. order) : 0.8227104E+00  (-0.1617756E+00)
 number of electron      74.0000006 magnetization 
 augmentation part        1.7606089 magnetization 

 Broyden mixing:
  rms(total) = 0.10322E+00    rms(broyden)= 0.10319E+00
  rms(prec ) = 0.13722E+00
  weight for this iteration     100.00

 eigenvalues of (default mixing * dielectric matrix)
  average eigenvalue GAMMA=   1.6169
  2.2745  1.1553  1.4208

 Free energy of the ion-electron system (eV)
  ---------------------------------------------------
  alpha Z        PSCENC =         2.86546965
  Ewald energy   TEWEN  =      5252.26810753
  -Hartree energ DENC   =     -6881.45892262
  -exchange      EXHF   =         0.00000000
  -V(xc)+E(xc)   XCENC  =       237.96948378
  PAW double counting   =      5279.73771480    -5288.54093412
  entropy T*S    EENTRO =        -0.00000000
  eigenvalues    EBANDS =      -898.86336075
  atomic energy  EATOM  =      2090.31388239
  Solvation  Ediel_sol  =         0.00000000
  ---------------------------------------------------
  free energy    TOTEN  =      -205.70855934 eV

  energy without entropy =     -205.70855934  energy(sigma->0) =     -205.70855934


--------------------------------------------------------------------------------------------------------




--------------------------------------- Iteration      1(  11)  ---------------------------------------


    POTLOK:  cpu time    0.1816: real time    0.1820
    SETDIJ:  cpu time    0.0018: real time    0.0018
     EDDAV:  cpu time    1.4769: real time    1.4774
       DOS:  cpu time    0.0002: real time    0.0002
    CHARGE:  cpu time    0.1059: real time    0.1059
    MIXING:  cpu time    0.0061: real time    0.0061
    --------------------------------------------
      LOOP:  cpu time    1.7725: real time    1.7735

 eigenvalue-minimisations  :   288
 total energy-change (2. order) : 0.6774257E-01  (-0.2393475E-01)
 number of electron      74.0000006 magnetization 
 augmentation part        1.7496158 magnetization 

 Broyden mixing:
  rms(total) = 0.55239E-01    rms(broyden)= 0.55226E-01
  rms(prec ) = 0.83977E-01
  weight for this iteration     100.00

 eigenvalues of (default mixing * dielectric matrix)
  average eigenvalue GAMMA=   1.5457
  1.9740  1.9740  0.9915  1.2432

 Free energy of the ion-electron system (eV)
  ---------------------------------------------------
  alpha Z        PSCENC =         2.86546965
  Ewald energy   TEWEN  =      5252.26810753
  -Hartree energ DENC   =     -6895.97589679
  -exchange      EXHF   =         0.00000000
  -V(xc)+E(xc)   XCENC  =       238.36442515
  PAW double counting   =      5285.49482823    -5294.38305932
  entropy T*S    EENTRO =        -0.00000000
  eigenvalues    EBANDS =      -884.58857362
  atomic energy  EATOM  =      2090.31388239
  Solvation  Ediel_sol  =         0.00000000
  ---------------------------------------------------
  free energy    TOTEN  =      -205.64081677 eV

  energy without entropy =     -205.64081677  energy(sigma->0) =     -205.64081677


--------------------------------------------------------------------------------------------------------




--------------------------------------- Iteration      1(  12)  ---------------------------------------


    POTLOK:  cpu time    0.1850: real time    0.1855
    SETDIJ:  cpu time    0.0016: real time    0.0016
     EDDAV:  cpu time    1.4899: real time    1.4902
       DOS:  cpu time    0.0002: real time    0.0002
    CHARGE:  cpu time    0.1080: real time    0.1080
    MIXING:  cpu time    0.0064: real time    0.0064
    --------------------------------------------
      LOOP:  cpu time    1.7910: real time    1.7919

 eigenvalue-minimisations  :   288
 total energy-change (2. order) : 0.2480741E-01  (-0.2547369E-02)
 number of electron      74.0000006 magnetization 
 augmentation part        1.7472811 magnetization 

 Broyden mixing:
  rms(total) = 0.28244E-01    rms(broyden)= 0.28240E-01
  rms(prec ) = 0.52256E-01
  weight for this iteration     100.00

 eigenvalues of (default mixing * dielectric matrix)
  average eigenvalue GAMMA=   1.6590
  2.4355  2.4355  1.1475  1.1475  1.1291

 Free energy of the ion-electron system (eV)
  ---------------------------------------------------
  alpha Z        PSCENC =         2.86546965
  Ewald energy   TEWEN  =      5252.26810753
  -Hartree energ DENC   =     -6909.29560277
  -exchange      EXHF   =         0.00000000
  -V(xc)+E(xc)   XCENC  =       238.56863829
  PAW double counting   =      5214.67189104    -5223.54576530
  entropy T*S    EENTRO =        -0.00000000
  eigenvalues    EBANDS =      -871.46263020
  atomic energy  EATOM  =      2090.31388239
  Solvation  Ediel_sol  =         0.00000000
  ---------------------------------------------------
  free energy    TOTEN  =      -205.61600936 eV

  energy without entropy =     -205.61600936  energy(sigma->0) =     -205.61600936


--------------------------------------------------------------------------------------------------------




--------------------------------------- Iteration      1(  13)  ---------------------------------------


    POTLOK:  cpu time    0.1873: real time    0.1879
    SETDIJ:  cpu time    0.0018: real time    0.0018
     EDDAV:  cpu time    1.4861: real time    1.4863
       DOS:  cpu time    0.0002: real time    0.0002
    CHARGE:  cpu time    0.1067: real time    0.1067
    MIXING:  cpu time    0.0066: real time    0.0066
    --------------------------------------------
      LOOP:  cpu time    1.7888: real time    1.7897

 eigenvalue-minimisations  :   288
 total energy-change (2. order) : 0.1893612E-01  (-0.9965233E-03)
 number of electron      74.0000006 magnetization 
 augmentation part        1.7456948 magnetization 

 Broyden mixing:
  rms(total) = 0.16033E-01    rms(broyden)= 0.16031E-01
  rms(prec ) = 0.32035E-01
  weight for this iteration     100.00

 eigenvalues of (default mixing * dielectric matrix)
  average eigenvalue GAMMA=   1.8107
  3.2297  2.4909  1.7479  0.9788  1.2083  1.2083

 Free energy of the ion-electron system (eV)
  ---------------------------------------------------
  alpha Z        PSCENC =         2.86546965
  Ewald energy   TEWEN  =      5252.26810753
  -Hartree energ DENC   =     -6922.63674632
  -exchange      EXHF   =         0.00000000
  -V(xc)+E(xc)   XCENC  =       238.88520242
  PAW double counting   =      5216.19419124    -5225.04858962
  entropy T*S    EENTRO =        -0.00000000
  eigenvalues    EBANDS =      -858.43859054
  atomic energy  EATOM  =      2090.31388239
  Solvation  Ediel_sol  =         0.00000000
  ---------------------------------------------------
  free energy    TOTEN  =      -205.59707324 eV

  energy without entropy =     -205.59707324  energy(sigma->0) =     -205.59707324


--------------------------------------------------------------------------------------------------------




--------------------------------------- Iteration      1(  14)  ---------------------------------------


    POTLOK:  cpu time    0.1870: real time    0.1875
    SETDIJ:  cpu time    0.0019: real time    0.0019
     EDDAV:  cpu time    1.4866: real time    1.4869
       DOS:  cpu time    0.0002: real time    0.0002
    CHARGE:  cpu time    0.1076: real time    0.1078
    MIXING:  cpu time    0.0069: real time    0.0069
    --------------------------------------------
      LOOP:  cpu time    1.7902: real time    1.7911

 eigenvalue-minimisations  :   288
 total energy-change (2. order) : 0.7596443E-02  (-0.1738792E-02)
 number of electron      74.0000006 magnetization 
 augmentation part        1.7432164 magnetization 

 Broyden mixing:
  rms(total) = 0.95779E-02    rms(broyden)= 0.95750E-02
  rms(prec ) = 0.17272E-01
  weight for this iteration     100.00

 eigenvalues of (default mixing * dielectric matrix)
  average eigenvalue GAMMA=   1.9161
  4.1961  2.5271  1.6703  1.6703  1.2976  1.0257  1.0257

 Free energy of the ion-electron system (eV)
  ---------------------------------------------------
  alpha Z        PSCENC =         2.86546965
  Ewald energy   TEWEN  =      5252.26810753
  -Hartree energ DENC   =     -6935.33649764
  -exchange      EXHF   =         0.00000000
  -V(xc)+E(xc)   XCENC  =       239.08865620
  PAW double counting   =      5199.72027740    -5208.57881811
  entropy T*S    EENTRO =        -0.00000000
  eigenvalues    EBANDS =      -845.93055423
  atomic energy  EATOM  =      2090.31388239
  Solvation  Ediel_sol  =         0.00000000
  ---------------------------------------------------
  free energy    TOTEN  =      -205.58947680 eV

  energy without entropy =     -205.58947680  energy(sigma->0) =     -205.58947680


--------------------------------------------------------------------------------------------------------




--------------------------------------- Iteration      1(  15)  ---------------------------------------


    POTLOK:  cpu time    0.1869: real time    0.1875
    SETDIJ:  cpu time    0.0019: real time    0.0019
     EDDAV:  cpu time    1.0711: real time    1.0714
       DOS:  cpu time    0.0002: real time    0.0002
    CHARGE:  cpu time    0.1076: real time    0.1076
    MIXING:  cpu time    0.0071: real time    0.0071
    --------------------------------------------
      LOOP:  cpu time    1.3748: real time    1.3756

 eigenvalue-minimisations  :   192
 total energy-change (2. order) :-0.1508937E-01  (-0.3155055E-03)
 number of electron      74.0000006 magnetization 
 augmentation part        1.7430209 magnetization 

 Broyden mixing:
  rms(total) = 0.59409E-02    rms(broyden)= 0.59402E-02
  rms(prec ) = 0.10253E-01
  weight for this iteration     100.00

 eigenvalues of (default mixing * dielectric matrix)
  average eigenvalue GAMMA=   1.9148
  4.5419  2.5130  2.1523  1.6877  1.3412  1.0897  1.0897  0.9025

 Free energy of the ion-electron system (eV)
  ---------------------------------------------------
  alpha Z        PSCENC =         2.86546965
  Ewald energy   TEWEN  =      5252.26810753
  -Hartree energ DENC   =     -6939.51458805
  -exchange      EXHF   =         0.00000000
  -V(xc)+E(xc)   XCENC  =       239.08769246
  PAW double counting   =      5193.05869285    -5201.91108817
  entropy T*S    EENTRO =        -0.00000000
  eigenvalues    EBANDS =      -841.77273484
  atomic energy  EATOM  =      2090.31388239
  Solvation  Ediel_sol  =         0.00000000
  ---------------------------------------------------
  free energy    TOTEN  =      -205.60456617 eV

  energy without entropy =     -205.60456617  energy(sigma->0) =     -205.60456617


--------------------------------------------------------------------------------------------------------




--------------------------------------- Iteration      1(  16)  ---------------------------------------


    POTLOK:  cpu time    0.2277: real time    0.2282
    SETDIJ:  cpu time    0.0042: real time    0.0042
     EDDAV:  cpu time    1.2894: real time    1.2896
       DOS:  cpu time    0.0002: real time    0.0002
    CHARGE:  cpu time    0.1058: real time    0.1061
    MIXING:  cpu time    0.0074: real time    0.0074
    --------------------------------------------
      LOOP:  cpu time    1.6347: real time    1.6356

 eigenvalue-minimisations  :   240
 total energy-change (2. order) :-0.1303872E-01  (-0.1266054E-03)
 number of electron      74.0000006 magnetization 
 augmentation part        1.7427426 magnetization 

 Broyden mixing:
  rms(total) = 0.38027E-02    rms(broyden)= 0.38025E-02
  rms(prec ) = 0.67534E-02
  weight for this iteration     100.00

 eigenvalues of (default mixing * dielectric matrix)
  average eigenvalue GAMMA=   2.0755
  5.8983  2.9818  2.2535  1.5752  1.5752  1.3701  1.0417  1.0417  0.9421

 Free energy of the ion-electron system (eV)
  ---------------------------------------------------
  alpha Z        PSCENC =         2.86546965
  Ewald energy   TEWEN  =      5252.26810753
  -Hartree energ DENC   =     -6941.33261935
  -exchange      EXHF   =         0.00000000
  -V(xc)+E(xc)   XCENC  =       239.09264147
  PAW double counting   =      5200.34342308    -5209.19512344
  entropy T*S    EENTRO =        -0.00000000
  eigenvalues    EBANDS =      -839.97338623
  atomic energy  EATOM  =      2090.31388239
  Solvation  Ediel_sol  =         0.00000000
  ---------------------------------------------------
  free energy    TOTEN  =      -205.61760489 eV

  energy without entropy =     -205.61760489  energy(sigma->0) =     -205.61760489


--------------------------------------------------------------------------------------------------------




--------------------------------------- Iteration      1(  17)  ---------------------------------------


    POTLOK:  cpu time    0.1838: real time    0.1848
    SETDIJ:  cpu time    0.0018: real time    0.0018
     EDDAV:  cpu time    1.2676: real time    1.2709
       DOS:  cpu time    0.0002: real time    0.0002
    CHARGE:  cpu time    0.1078: real time    0.1078
    MIXING:  cpu time    0.0077: real time    0.0077
    --------------------------------------------
      LOOP:  cpu time    1.5689: real time    1.5733

 eigenvalue-minimisations  :   240
 total energy-change (2. order) :-0.9648206E-02  (-0.9527985E-04)
 number of electron      74.0000006 magnetization 
 augmentation part        1.7426577 magnetization 

 Broyden mixing:
  rms(total) = 0.23837E-02    rms(broyden)= 0.23836E-02
  rms(prec ) = 0.41167E-02
  weight for this iteration     100.00

 eigenvalues of (default mixing * dielectric matrix)
  average eigenvalue GAMMA=   2.2275
  6.6594  3.9710  2.3606  2.3606  1.2369  1.2369  0.9465  1.2469  1.1281  1.1281

 Free energy of the ion-electron system (eV)
  ---------------------------------------------------
  alpha Z        PSCENC =         2.86546965
  Ewald energy   TEWEN  =      5252.26810753
  -Hartree energ DENC   =     -6942.28995684
  -exchange      EXHF   =         0.00000000
  -V(xc)+E(xc)   XCENC  =       239.06972802
  PAW double counting   =      5196.83883183    -5205.69035854
  entropy T*S    EENTRO =        -0.00000000
  eigenvalues    EBANDS =      -839.00295713
  atomic energy  EATOM  =      2090.31388239
  Solvation  Ediel_sol  =         0.00000000
  ---------------------------------------------------
  free energy    TOTEN  =      -205.62725309 eV

  energy without entropy =     -205.62725309  energy(sigma->0) =     -205.62725309


--------------------------------------------------------------------------------------------------------




--------------------------------------- Iteration      1(  18)  ---------------------------------------


    POTLOK:  cpu time    0.1805: real time    0.1809
    SETDIJ:  cpu time    0.0018: real time    0.0018
     EDDAV:  cpu time    1.2732: real time    1.2734
       DOS:  cpu time    0.0002: real time    0.0002
    CHARGE:  cpu time    0.1080: real time    0.1081
    MIXING:  cpu time    0.0082: real time    0.0127
    --------------------------------------------
      LOOP:  cpu time    1.5720: real time    1.5772

 eigenvalue-minimisations  :   240
 total energy-change (2. order) :-0.7420460E-02  (-0.1075565E-03)
 number of electron      74.0000006 magnetization 
 augmentation part        1.7426123 magnetization 

 Broyden mixing:
  rms(total) = 0.14273E-02    rms(broyden)= 0.14272E-02
  rms(prec ) = 0.21162E-02
  weight for this iteration     100.00

 eigenvalues of (default mixing * dielectric matrix)
  average eigenvalue GAMMA=   2.2373
  7.0270  4.3137  2.4090  2.4090  1.5135  1.4481  1.4481  1.0820  1.0820  0.9230
  0.9548

 Free energy of the ion-electron system (eV)
  ---------------------------------------------------
  alpha Z        PSCENC =         2.86546965
  Ewald energy   TEWEN  =      5252.26810753
  -Hartree energ DENC   =     -6942.74973578
  -exchange      EXHF   =         0.00000000
  -V(xc)+E(xc)   XCENC  =       239.05704811
  PAW double counting   =      5198.37131976    -5207.22157114
  entropy T*S    EENTRO =        -0.00000000
  eigenvalues    EBANDS =      -838.53919408
  atomic energy  EATOM  =      2090.31388239
  Solvation  Ediel_sol  =         0.00000000
  ---------------------------------------------------
  free energy    TOTEN  =      -205.63467355 eV

  energy without entropy =     -205.63467355  energy(sigma->0) =     -205.63467355


--------------------------------------------------------------------------------------------------------




--------------------------------------- Iteration      1(  19)  ---------------------------------------


    POTLOK:  cpu time    0.1808: real time    0.1815
    SETDIJ:  cpu time    0.0016: real time    0.0016
     EDDAV:  cpu time    1.4834: real time    1.4837
       DOS:  cpu time    0.0002: real time    0.0002
    CHARGE:  cpu time    0.1077: real time    0.1077
    MIXING:  cpu time    0.0083: real time    0.0083
    --------------------------------------------
      LOOP:  cpu time    1.7820: real time    1.7829

 eigenvalue-minimisations  :   288
 total energy-change (2. order) :-0.1794118E-02  (-0.9215411E-05)
 number of electron      74.0000006 magnetization 
 augmentation part        1.7424913 magnetization 

 Broyden mixing:
  rms(total) = 0.10181E-02    rms(broyden)= 0.10181E-02
  rms(prec ) = 0.14504E-02
  weight for this iteration     100.00

 eigenvalues of (default mixing * dielectric matrix)
  average eigenvalue GAMMA=   2.3209
  7.6577  4.8711  2.6588  2.6588  1.9730  1.4745  1.2296  1.2296  0.9299  1.0472
  1.0600  1.0600

 Free energy of the ion-electron system (eV)
  ---------------------------------------------------
  alpha Z        PSCENC =         2.86546965
  Ewald energy   TEWEN  =      5252.26810753
  -Hartree energ DENC   =     -6943.02779734
  -exchange      EXHF   =         0.00000000
  -V(xc)+E(xc)   XCENC  =       239.05981328
  PAW double counting   =      5197.40574963    -5206.25727348
  entropy T*S    EENTRO =        -0.00000000
  eigenvalues    EBANDS =      -838.26441933
  atomic energy  EATOM  =      2090.31388239
  Solvation  Ediel_sol  =         0.00000000
  ---------------------------------------------------
  free energy    TOTEN  =      -205.63646767 eV

  energy without entropy =     -205.63646767  energy(sigma->0) =     -205.63646767


--------------------------------------------------------------------------------------------------------




--------------------------------------- Iteration      1(  20)  ---------------------------------------


    POTLOK:  cpu time    0.1861: real time    0.1868
    SETDIJ:  cpu time    0.0016: real time    0.0016
     EDDAV:  cpu time    1.2727: real time    1.2731
       DOS:  cpu time    0.0002: real time    0.0002
    CHARGE:  cpu time    0.1041: real time    0.1041
    MIXING:  cpu time    0.0085: real time    0.0085
    --------------------------------------------
      LOOP:  cpu time    1.5731: real time    1.5742

 eigenvalue-minimisations  :   240
 total energy-change (2. order) :-0.1280592E-02  (-0.8237963E-05)
 number of electron      74.0000006 magnetization 
 augmentation part        1.7425361 magnetization 

 Broyden mixing:
  rms(total) = 0.52079E-03    rms(broyden)= 0.52069E-03
  rms(prec ) = 0.72677E-03
  weight for this iteration     100.00

 eigenvalues of (default mixing * dielectric matrix)
  average eigenvalue GAMMA=   2.3379
  8.0017  5.3656  3.0700  2.4675  2.1257  1.5016  1.4534  1.1922  1.1922  0.9640
  0.9640  1.0474  1.0474

 Free energy of the ion-electron system (eV)
  ---------------------------------------------------
  alpha Z        PSCENC =         2.86546965
  Ewald energy   TEWEN  =      5252.26810753
  -Hartree energ DENC   =     -6943.00652569
  -exchange      EXHF   =         0.00000000
  -V(xc)+E(xc)   XCENC  =       239.05484708
  PAW double counting   =      5196.19576177    -5205.04721968
  entropy T*S    EENTRO =        -0.00000000
  eigenvalues    EBANDS =      -838.28207132
  atomic energy  EATOM  =      2090.31388239
  Solvation  Ediel_sol  =         0.00000000
  ---------------------------------------------------
  free energy    TOTEN  =      -205.63774826 eV

  energy without entropy =     -205.63774826  energy(sigma->0) =     -205.63774826


--------------------------------------------------------------------------------------------------------




--------------------------------------- Iteration      1(  21)  ---------------------------------------


    POTLOK:  cpu time    0.1835: real time    0.1840
    SETDIJ:  cpu time    0.0016: real time    0.0016
     EDDAV:  cpu time    1.4947: real time    1.4953
       DOS:  cpu time    0.0002: real time    0.0002
    CHARGE:  cpu time    0.1079: real time    0.1079
    MIXING:  cpu time    0.0088: real time    0.0088
    --------------------------------------------
      LOOP:  cpu time    1.7967: real time    1.7978

 eigenvalue-minimisations  :   288
 total energy-change (2. order) :-0.3650579E-03  (-0.7500552E-06)
 number of electron      74.0000006 magnetization 
 augmentation part        1.7425289 magnetization 

 Broyden mixing:
  rms(total) = 0.27471E-03    rms(broyden)= 0.27467E-03
  rms(prec ) = 0.40436E-03
  weight for this iteration     100.00

 eigenvalues of (default mixing * dielectric matrix)
  average eigenvalue GAMMA=   2.3595
  8.3287  5.6911  3.2762  2.5382  2.2394  1.8136  1.6154  1.1664  1.1664  1.2296
  1.0479  1.0479  0.9364  0.9364

 Free energy of the ion-electron system (eV)
  ---------------------------------------------------
  alpha Z        PSCENC =         2.86546965
  Ewald energy   TEWEN  =      5252.26810753
  -Hartree energ DENC   =     -6943.08383832
  -exchange      EXHF   =         0.00000000
  -V(xc)+E(xc)   XCENC  =       239.05656640
  PAW double counting   =      5196.72671061    -5205.57811506
  entropy T*S    EENTRO =        -0.00000000
  eigenvalues    EBANDS =      -838.20689653
  atomic energy  EATOM  =      2090.31388239
  Solvation  Ediel_sol  =         0.00000000
  ---------------------------------------------------
  free energy    TOTEN  =      -205.63811332 eV

  energy without entropy =     -205.63811332  energy(sigma->0) =     -205.63811332


--------------------------------------------------------------------------------------------------------




--------------------------------------- Iteration      1(  22)  ---------------------------------------


    POTLOK:  cpu time    0.1839: real time    0.1844
    SETDIJ:  cpu time    0.0016: real time    0.0016
     EDDAV:  cpu time    1.4824: real time    1.4850
       DOS:  cpu time    0.0002: real time    0.0002
    CHARGE:  cpu time    0.1075: real time    0.1076
    MIXING:  cpu time    0.0091: real time    0.0091
    --------------------------------------------
      LOOP:  cpu time    1.7847: real time    1.7879

 eigenvalue-minimisations  :   288
 total energy-change (2. order) :-0.2077649E-03  (-0.2529651E-06)
 number of electron      74.0000006 magnetization 
 augmentation part        1.7425332 magnetization 

 Broyden mixing:
  rms(total) = 0.12135E-03    rms(broyden)= 0.12132E-03
  rms(prec ) = 0.20113E-03
  weight for this iteration     100.00

 eigenvalues of (default mixing * dielectric matrix)
  average eigenvalue GAMMA=   2.4215
  8.7634  6.1149  3.9329  2.5609  2.5609  1.9782  1.6618  1.3974  1.1773  1.1773
  1.0495  1.0495  0.9873  0.9873  0.9234

 Free energy of the ion-electron system (eV)
  ---------------------------------------------------
  alpha Z        PSCENC =         2.86546965
  Ewald energy   TEWEN  =      5252.26810753
  -Hartree energ DENC   =     -6943.10685985
  -exchange      EXHF   =         0.00000000
  -V(xc)+E(xc)   XCENC  =       239.05615817
  PAW double counting   =      5196.81618042    -5205.66753728
  entropy T*S    EENTRO =        -0.00000000
  eigenvalues    EBANDS =      -838.18372213
  atomic energy  EATOM  =      2090.31388239
  Solvation  Ediel_sol  =         0.00000000
  ---------------------------------------------------
  free energy    TOTEN  =      -205.63832109 eV

  energy without entropy =     -205.63832109  energy(sigma->0) =     -205.63832109


--------------------------------------------------------------------------------------------------------




--------------------------------------- Iteration      1(  23)  ---------------------------------------


    POTLOK:  cpu time    0.1810: real time    0.1815
    SETDIJ:  cpu time    0.0016: real time    0.0016
     EDDAV:  cpu time    1.4846: real time    1.4850
       DOS:  cpu time    0.0002: real time    0.0002
    CHARGE:  cpu time    0.1076: real time    0.1076
    MIXING:  cpu time    0.0095: real time    0.0095
    --------------------------------------------
      LOOP:  cpu time    1.7845: real time    1.7854

 eigenvalue-minimisations  :   288
 total energy-change (2. order) :-0.8451856E-04  (-0.1001276E-06)
 number of electron      74.0000006 magnetization 
 augmentation part        1.7425368 magnetization 

 Broyden mixing:
  rms(total) = 0.79270E-04    rms(broyden)= 0.79260E-04
  rms(prec ) = 0.11624E-03
  weight for this iteration     100.00

 eigenvalues of (default mixing * dielectric matrix)
  average eigenvalue GAMMA=   2.4303
  9.1097  6.3525  4.3030  2.8186  2.4057  2.0771  1.5370  1.5370  1.3977  1.1577
  1.1577  1.0473  1.0473  0.9514  0.9514  1.0334

 Free energy of the ion-electron system (eV)
  ---------------------------------------------------
  alpha Z        PSCENC =         2.86546965
  Ewald energy   TEWEN  =      5252.26810753
  -Hartree energ DENC   =     -6943.12672741
  -exchange      EXHF   =         0.00000000
  -V(xc)+E(xc)   XCENC  =       239.05625931
  PAW double counting   =      5196.84563128    -5205.69692317
  entropy T*S    EENTRO =        -0.00000000
  eigenvalues    EBANDS =      -838.16410518
  atomic energy  EATOM  =      2090.31388239
  Solvation  Ediel_sol  =         0.00000000
  ---------------------------------------------------
  free energy    TOTEN  =      -205.63840561 eV

  energy without entropy =     -205.63840561  energy(sigma->0) =     -205.63840561


--------------------------------------------------------------------------------------------------------




--------------------------------------- Iteration      1(  24)  ---------------------------------------


    POTLOK:  cpu time    0.1832: real time    0.1841
    SETDIJ:  cpu time    0.0018: real time    0.0018
     EDDAV:  cpu time    1.3062: real time    1.3064
       DOS:  cpu time    0.0002: real time    0.0002
    CHARGE:  cpu time    0.1075: real time    0.1076
    MIXING:  cpu time    0.0098: real time    0.0098
    --------------------------------------------
      LOOP:  cpu time    1.6088: real time    1.6100

 eigenvalue-minimisations  :   240
 total energy-change (2. order) :-0.3242441E-04  (-0.2478621E-07)
 number of electron      74.0000006 magnetization 
 augmentation part        1.7425347 magnetization 

 Broyden mixing:
  rms(total) = 0.42267E-04    rms(broyden)= 0.42262E-04
  rms(prec ) = 0.66453E-04
  weight for this iteration     100.00

 eigenvalues of (default mixing * dielectric matrix)
  average eigenvalue GAMMA=   2.4780
  9.3331  6.6073  4.7162  3.1059  2.5007  2.4350  1.9662  1.5494  1.1595  1.1595
  1.2861  1.2210  1.0520  1.0520  0.9357  0.9357  1.1106

 Free energy of the ion-electron system (eV)
  ---------------------------------------------------
  alpha Z        PSCENC =         2.86546965
  Ewald energy   TEWEN  =      5252.26810753
  -Hartree energ DENC   =     -6943.13091154
  -exchange      EXHF   =         0.00000000
  -V(xc)+E(xc)   XCENC  =       239.05615582
  PAW double counting   =      5196.80666007    -5205.65798941
  entropy T*S    EENTRO =        -0.00000000
  eigenvalues    EBANDS =      -838.15981254
  atomic energy  EATOM  =      2090.31388239
  Solvation  Ediel_sol  =         0.00000000
  ---------------------------------------------------
  free energy    TOTEN  =      -205.63843803 eV

  energy without entropy =     -205.63843803  energy(sigma->0) =     -205.63843803


--------------------------------------------------------------------------------------------------------




--------------------------------------- Iteration      1(  25)  ---------------------------------------


    POTLOK:  cpu time    0.1837: real time    0.1842
    SETDIJ:  cpu time    0.0017: real time    0.0017
     EDDAV:  cpu time    1.2716: real time    1.2720
       DOS:  cpu time    0.0002: real time    0.0002
    CHARGE:  cpu time    0.1043: real time    0.1044
    MIXING:  cpu time    0.0102: real time    0.0102
    --------------------------------------------
      LOOP:  cpu time    1.5717: real time    1.5727

 eigenvalue-minimisations  :   240
 total energy-change (2. order) :-0.2346622E-04  (-0.2470557E-07)
 number of electron      74.0000006 magnetization 
 augmentation part        1.7425345 magnetization 

 Broyden mixing:
  rms(total) = 0.19785E-04    rms(broyden)= 0.19781E-04
  rms(prec ) = 0.30145E-04
  weight for this iteration     100.00

 eigenvalues of (default mixing * dielectric matrix)
  average eigenvalue GAMMA=   2.4597
  9.4535  6.7127  4.9209  3.3476  2.5658  2.4064  2.0677  1.4798  1.4798  1.4616
  1.1665  1.1665  1.0455  1.0455  1.0455  1.0431  0.9329  0.9329

 Free energy of the ion-electron system (eV)
  ---------------------------------------------------
  alpha Z        PSCENC =         2.86546965
  Ewald energy   TEWEN  =      5252.26810753
  -Hartree energ DENC   =     -6943.13259493
  -exchange      EXHF   =         0.00000000
  -V(xc)+E(xc)   XCENC  =       239.05614814
  PAW double counting   =      5196.78517806    -5205.63651075
  entropy T*S    EENTRO =        -0.00000000
  eigenvalues    EBANDS =      -838.15814159
  atomic energy  EATOM  =      2090.31388239
  Solvation  Ediel_sol  =         0.00000000
  ---------------------------------------------------
  free energy    TOTEN  =      -205.63846150 eV

  energy without entropy =     -205.63846150  energy(sigma->0) =     -205.63846150


--------------------------------------------------------------------------------------------------------




--------------------------------------- Iteration      1(  26)  ---------------------------------------


    POTLOK:  cpu time    0.1853: real time    0.1859
    SETDIJ:  cpu time    0.0019: real time    0.0019
     EDDAV:  cpu time    1.4855: real time    1.4861
       DOS:  cpu time    0.0002: real time    0.0002
    CHARGE:  cpu time    0.1042: real time    0.1042
    MIXING:  cpu time    0.0105: real time    0.0105
    --------------------------------------------
      LOOP:  cpu time    1.7876: real time    1.7888

 eigenvalue-minimisations  :   288
 total energy-change (2. order) :-0.4941790E-05  (-0.3407514E-08)
 number of electron      74.0000006 magnetization 
 augmentation part        1.7425351 magnetization 

 Broyden mixing:
  rms(total) = 0.11421E-04    rms(broyden)= 0.11419E-04
  rms(prec ) = 0.18361E-04
  weight for this iteration     100.00

 eigenvalues of (default mixing * dielectric matrix)
  average eigenvalue GAMMA=   2.4782
  9.5347  6.9000  5.2219  3.8124  2.6673  2.5334  1.9657  1.9657  1.5650  1.1701
  1.1701  1.2814  1.2814  1.0558  1.0558  0.9297  0.9297  1.0392  1.0056

 Free energy of the ion-electron system (eV)
  ---------------------------------------------------
  alpha Z        PSCENC =         2.86546965
  Ewald energy   TEWEN  =      5252.26810753
  -Hartree energ DENC   =     -6943.13084894
  -exchange      EXHF   =         0.00000000
  -V(xc)+E(xc)   XCENC  =       239.05611809
  PAW double counting   =      5196.78825302    -5205.63957946
  entropy T*S    EENTRO =        -0.00000000
  eigenvalues    EBANDS =      -838.15986872
  atomic energy  EATOM  =      2090.31388239
  Solvation  Ediel_sol  =         0.00000000
  ---------------------------------------------------
  free energy    TOTEN  =      -205.63846644 eV

  energy without entropy =     -205.63846644  energy(sigma->0) =     -205.63846644


--------------------------------------------------------------------------------------------------------




--------------------------------------- Iteration      1(  27)  ---------------------------------------


    POTLOK:  cpu time    0.1868: real time    0.1877
    SETDIJ:  cpu time    0.0019: real time    0.0019
     EDDAV:  cpu time    1.2724: real time    1.2729
       DOS:  cpu time    0.0002: real time    0.0002
    CHARGE:  cpu time    0.1073: real time    0.1073
    MIXING:  cpu time    0.0113: real time    0.0113
    --------------------------------------------
      LOOP:  cpu time    1.5800: real time    1.5814

 eigenvalue-minimisations  :   240
 total energy-change (2. order) :-0.2856954E-05  (-0.2447136E-08)
 number of electron      74.0000006 magnetization 
 augmentation part        1.7425351 magnetization 

 Broyden mixing:
  rms(total) = 0.59361E-05    rms(broyden)= 0.59350E-05
  rms(prec ) = 0.10126E-04
  weight for this iteration     100.00

 eigenvalues of (default mixing * dielectric matrix)
  average eigenvalue GAMMA=   2.4720
  9.5649  6.9948  5.4021  3.9908  2.8018  2.3882  2.2994  2.1391  1.4960  1.4531
  1.4531  1.1626  1.1626  1.1688  1.0539  1.0539  1.0027  1.0027  0.9247  0.9247

 Free energy of the ion-electron system (eV)
  ---------------------------------------------------
  alpha Z        PSCENC =         2.86546965
  Ewald energy   TEWEN  =      5252.26810753
  -Hartree energ DENC   =     -6943.12968052
  -exchange      EXHF   =         0.00000000
  -V(xc)+E(xc)   XCENC  =       239.05610408
  PAW double counting   =      5196.78426758    -5205.63559459
  entropy T*S    EENTRO =        -0.00000000
  eigenvalues    EBANDS =      -838.16102542
  atomic energy  EATOM  =      2090.31388239
  Solvation  Ediel_sol  =         0.00000000
  ---------------------------------------------------
  free energy    TOTEN  =      -205.63846929 eV

  energy without entropy =     -205.63846929  energy(sigma->0) =     -205.63846929


--------------------------------------------------------------------------------------------------------




--------------------------------------- Iteration      1(  28)  ---------------------------------------


    POTLOK:  cpu time    0.1858: real time    0.1864
    SETDIJ:  cpu time    0.0020: real time    0.0020
     EDDAV:  cpu time    1.4870: real time    1.4874
       DOS:  cpu time    0.0002: real time    0.0002
    CHARGE:  cpu time    0.1079: real time    0.1079
    MIXING:  cpu time    0.0115: real time    0.0115
    --------------------------------------------
      LOOP:  cpu time    1.7943: real time    1.7953

 eigenvalue-minimisations  :   288
 total energy-change (2. order) :-0.1102752E-05  (-0.6943566E-09)
 number of electron      74.0000006 magnetization 
 augmentation part        1.7425348 magnetization 

 Broyden mixing:
  rms(total) = 0.43148E-05    rms(broyden)= 0.43137E-05
  rms(prec ) = 0.66990E-05
  weight for this iteration     100.00

 eigenvalues of (default mixing * dielectric matrix)
  average eigenvalue GAMMA=   2.4584
  9.5860  7.0935  5.5791  4.2035  3.0028  2.4395  2.4395  2.0306  1.6858  1.5811
  1.2626  1.2626  1.1484  1.1484  1.1823  1.0635  1.0635  1.0252  0.9394  0.9394
  0.9493

 Free energy of the ion-electron system (eV)
  ---------------------------------------------------
  alpha Z        PSCENC =         2.86546965
  Ewald energy   TEWEN  =      5252.26810753
  -Hartree energ DENC   =     -6943.12998396
  -exchange      EXHF   =         0.00000000
  -V(xc)+E(xc)   XCENC  =       239.05612727
  PAW double counting   =      5196.78896157    -5205.64028898
  entropy T*S    EENTRO =        -0.00000000
  eigenvalues    EBANDS =      -838.16074587
  atomic energy  EATOM  =      2090.31388239
  Solvation  Ediel_sol  =         0.00000000
  ---------------------------------------------------
  free energy    TOTEN  =      -205.63847040 eV

  energy without entropy =     -205.63847040  energy(sigma->0) =     -205.63847040


--------------------------------------------------------------------------------------------------------




--------------------------------------- Iteration      1(  29)  ---------------------------------------


    POTLOK:  cpu time    0.1883: real time    0.1888
    SETDIJ:  cpu time    0.0016: real time    0.0016
     EDDAV:  cpu time    1.2693: real time    1.2696
       DOS:  cpu time    0.0002: real time    0.0002
    --------------------------------------------
      LOOP:  cpu time    1.4594: real time    1.4602

 eigenvalue-minimisations  :   240
 total energy-change (2. order) :-0.4249787E-06  ( 0.4281198E-10)
 number of electron      74.0000006 magnetization 
 augmentation part        1.7425348 magnetization 

 Free energy of the ion-electron system (eV)
  ---------------------------------------------------
  alpha Z        PSCENC =         2.86546965
  Ewald energy   TEWEN  =      5252.26810753
  -Hartree energ DENC   =     -6943.12959195
  -exchange      EXHF   =         0.00000000
  -V(xc)+E(xc)   XCENC  =       239.05612010
  PAW double counting   =      5196.78857728    -5205.63990428
  entropy T*S    EENTRO =        -0.00000000
  eigenvalues    EBANDS =      -838.16113155
  atomic energy  EATOM  =      2090.31388239
  Solvation  Ediel_sol  =         0.00000000
  ---------------------------------------------------
  free energy    TOTEN  =      -205.63847082 eV

  energy without entropy =     -205.63847082  energy(sigma->0) =     -205.63847082


--------------------------------------------------------------------------------------------------------




 average (electrostatic) potential at core
  the test charge radii are     0.5201  0.6991
  (the norm of the test charge is              1.0000)
       1 -41.3421       2 -41.3454       3 -41.3236       4 -41.3036       5 -41.2991
       6 -41.3142       7 -41.3112       8 -41.2989       9 -41.2974      10 -41.2990
      11 -41.2975      12 -41.2945      13 -41.2912      14 -41.2966      15 -41.2959
      16 -41.2978      17 -41.2924      18 -41.3001      19 -41.3019      20 -41.3140
      21 -41.3093      22 -41.3026      23 -41.3030      24 -41.3432      25 -41.3238
      26 -41.3447      27 -57.8946      28 -58.0405      29 -58.0018      30 -57.9920
      31 -57.9877      32 -57.9850      33 -57.9849      34 -57.9878      35 -57.9918
      36 -58.0024      37 -58.0397      38 -57.8958
 
 
 
 E-fermi :  -6.2654     XC(G=0):  -0.5075     alpha+bet : -0.2401


 k-point     1 :       0.0000    0.0000    0.0000
  band No.  band energies     occupation 
      1     -20.0109      2.00000
      2     -19.7206      2.00000
      3     -19.2280      2.00000
      4     -18.5478      2.00000
      5     -17.6987      2.00000
      6     -16.7088      2.00000
      7     -15.6391      2.00000
      8     -14.6179      2.00000
      9     -13.9911      2.00000
     10     -13.9333      2.00000
     11     -13.7833      2.00000
     12     -13.6913      2.00000
     13     -11.7697      2.00000
     14     -11.4983      2.00000
     15     -11.0540      2.00000
     16     -10.4714      2.00000
     17     -10.3773      2.00000
     18     -10.3631      2.00000
     19      -9.8896      2.00000
     20      -9.7830      2.00000
     21      -9.7063      2.00000
     22      -9.2251      2.00000
     23      -9.0642      2.00000
     24      -8.6941      2.00000
     25      -8.4760      2.00000
     26      -8.4030      2.00000
     27      -8.1039      2.00000
     28      -7.8851      2.00000
     29      -7.7814      2.00000
     30      -7.6518      2.00000
     31      -7.5935      2.00000
     32      -7.5649      2.00000
     33      -7.4737      2.00000
     34      -7.4281      2.00000
     35      -7.4250      2.00000
     36      -7.3605      2.00000
     37      -6.4668      2.00000
     38      -0.4511      0.00000
     39      -0.2742      0.00000
     40      -0.1178      0.00000
     41      -0.0878      0.00000
     42      -0.0688      0.00000
     43       0.0993      0.00000
     44       0.1442      0.00000
     45       0.2394      0.00000
     46       0.2957      0.00000
     47       0.4710      0.00000
     48       0.5094      0.00000
     49       0.5561      0.00000
     50       0.5670      0.00000
     51       0.5881      0.00000
     52       0.5994      0.00000
     53       0.6013      0.00000
     54       0.6932      0.00000
     55       0.7201      0.00000
     56       0.8041      0.00000
     57       0.8291      0.00000
     58       0.8540      0.00000
     59       0.9474      0.00000
     60       0.9550      0.00000
     61       0.9655      0.00000
     62       1.0251      0.00000
     63       1.0427      0.00000
     64       1.0528      0.00000
     65       1.0995      0.00000
     66       1.1102      0.00000
     67       1.1420      0.00000
     68       1.1603      0.00000
     69       1.2878      0.00000
     70       1.2884      0.00000
     71       1.3662      0.00000
     72       1.3745      0.00000
     73       1.3895      0.00000
     74       1.3898      0.00000
     75       1.4123      0.00000
     76       1.4419      0.00000
     77       1.5392      0.00000
     78       1.5609      0.00000
     79       1.6010      0.00000
     80       1.6198      0.00000
     81       1.6479      0.00000
     82       1.6614      0.00000
     83       1.6903      0.00000
     84       1.7206      0.00000
     85       1.7313      0.00000
     86       1.7393      0.00000
     87       1.7996      0.00000
     88       1.8098      0.00000
     89       1.8101      0.00000
     90       1.8177      0.00000
     91       1.8738      0.00000
     92       1.8923      0.00000
     93       1.8975      0.00000
     94       1.9452      0.00000
     95       1.9767      0.00000
     96       1.9774      0.00000


--------------------------------------------------------------------------------------------------------


 soft charge-density along one line, spin component           1
         0         1         2         3         4         5         6         7         8         9
 total charge-density along one line
 
 pseudopotential strength for first ion, spin component:           1
 -2.338  -4.029  -0.001   0.001  -0.002
 -4.029  -6.855  -0.002   0.002  -0.005
 -0.001  -0.002  -0.339  -0.001   0.002
  0.001   0.002  -0.001  -0.339  -0.001
 -0.002  -0.005   0.002  -0.001  -0.335
 total augmentation occupancy for first ion, spin component:           1
  3.457  -0.596   0.158  -0.133   0.380
 -0.596   0.120  -0.028   0.024  -0.067
[...]
  Alpha Z     2.86547     2.86547     2.86547
  Ewald    1433.80737  2301.15995  1459.39671 -1543.25933 -1503.94087  1647.98486
  Hartree  2033.63806  2797.55853  2053.54976 -1359.35669 -1328.24702  1423.79605
  E(xc)    -260.80490  -260.62521  -260.79178    -0.25375    -0.23675     0.35394
  Local   -4092.24005 -5733.54910 -4138.90037  2912.47089  2840.78612 -3091.23275
  n-local  -123.33570  -121.59271  -123.09498    -1.38665    -1.13261     3.44414
  augment    -1.13757    -1.04638    -1.12770    -0.10221    -0.09107     0.18843
  Kinetic  1006.54188  1014.77891  1007.44433    -8.90437    -7.90859    16.18035
  Fock        0.00000     0.00000     0.00000     0.00000     0.00000     0.00000
  vdW        -0.21721    -0.48864    -0.22531     0.56433     0.54690    -0.60471
  -------------------------------------------------------------------------------------
  Total      -0.88265    -0.93919    -0.88386    -0.22779    -0.22389     0.11032
  in kB      -0.17677    -0.18809    -0.17701    -0.04562    -0.04484     0.02209
  external pressure =       -0.18 kB  Pullay stress =        0.00 kB



--------------------------------------------------------------------------------------------------------



  FREE ENERGIE OF THE ION-ELECTRON SYSTEM (eV)
  ---------------------------------------------------
  free  energy   TOTEN  =      -206.61939132 eV

  energy  without entropy=     -206.61939132  energy(sigma->0) =     -206.61939132
 
 d Force = 0.9836336E-04[ 0.255E-04, 0.171E-03]  d Energy = 0.9987506E-04-0.151E-05
 d Force = 0.2057402E-01[ 0.206E-01, 0.206E-01]  d Ewald  = 0.2057400E-01 0.157E-07


--------------------------------------------------------------------------------------------------------


    POTLOK:  cpu time    0.1898: real time    0.1904


--------------------------------------------------------------------------------------------------------


 Conjugate gradient step on ions:
 trial-energy change:   -0.000100  1 .order   -0.000098   -0.000171   -0.000026
  (g-gl).g = 0.726E-04      g.g   = 0.718E-04  gl.gl    = 0.896E-04
 g(Force)  = 0.718E-04   g(Stress)= 0.000E+00 ortho     = 0.932E-06
 gamma     =   0.81006
 trial     =   2.35881
 opt step  =   2.77258  (harmonic =   2.77258) maximal distance =0.00124912
 next E    =  -206.619392   (d E  =  -0.00010)


--------------------------------------------------------------------------------------------------------


    WAVPRE:  cpu time    0.0480: real time    0.0492
    FEWALD:  cpu time    0.0006: real time    0.0006
    ORTHCH:  cpu time    0.1039: real time    0.1039
     LOOP+:  cpu time    9.9213: real time    9.9296


--------------------------------------- Iteration     61(   1)  ---------------------------------------


    POTLOK:  cpu time    0.1892: real time    0.1894
    SETDIJ:  cpu time    0.0016: real time    0.0016
     EDDAV:  cpu time    1.4970: real time    1.4972
       DOS:  cpu time    0.0002: real time    0.0002
    CHARGE:  cpu time    0.1044: real time    0.1046
    MIXING:  cpu time    0.0051: real time    0.0051
    --------------------------------------------
      LOOP:  cpu time    1.7976: real time    1.7982

 eigenvalue-minimisations  :   288
 total energy-change (2. order) :-0.2037920E-04  (-0.6020786E-04)
 number of electron      73.9999983 magnetization 
 augmentation part        1.7287694 magnetization 

  free energy =  -0.205735768669E+03  energy without entropy=  -0.205735768669E+03


--------------------------------------------------------------------------------------------------------




--------------------------------------- Iteration     61(   2)  ---------------------------------------


    POTLOK:  cpu time    0.1900: real time    0.1912
    SETDIJ:  cpu time    0.0016: real time    0.0016
     EDDAV:  cpu time    1.4948: real time    1.4952
       DOS:  cpu time    0.0002: real time    0.0002
    CHARGE:  cpu time    0.1070: real time    0.1070
    MIXING:  cpu time    0.0054: real time    0.0054
    --------------------------------------------
      LOOP:  cpu time    1.7990: real time    1.8006

 eigenvalue-minimisations  :   288
 total energy-change (2. order) :-0.3827245E-06  (-0.8119829E-06)
 number of electron      73.9999983 magnetization 
 augmentation part        1.7287690 magnetization 

 eigenvalues of (default mixing * dielectric matrix)
  average eigenvalue GAMMA=   1.6707
  1.6707

  free energy =  -0.205735769051E+03  energy without entropy=  -0.205735769051E+03


--------------------------------------------------------------------------------------------------------




--------------------------------------- Iteration     61(   3)  ---------------------------------------


    POTLOK:  cpu time    0.1881: real time    0.1889
    SETDIJ:  cpu time    0.0017: real time    0.0017
     EDDAV:  cpu time    1.4875: real time    1.4879
       DOS:  cpu time    0.0002: real time    0.0002
    CHARGE:  cpu time    0.1044: real time    0.1044
    MIXING:  cpu time    0.0057: real time    0.0057
    --------------------------------------------
      LOOP:  cpu time    1.7875: real time    1.7888

 eigenvalue-minimisations  :   288
 total energy-change (2. order) : 0.2319575E-07  (-0.1036167E-06)
 number of electron      73.9999983 magnetization 
 augmentation part        1.7287647 magnetization 

 eigenvalues of (default mixing * dielectric matrix)
  average eigenvalue GAMMA=   1.5480
  0.8871  2.2090

  free energy =  -0.205735769028E+03  energy without entropy=  -0.205735769028E+03


--------------------------------------------------------------------------------------------------------




--------------------------------------- Iteration     61(   4)  ---------------------------------------


    POTLOK:  cpu time    0.1884: real time    0.1891
    SETDIJ:  cpu time    0.0016: real time    0.0016
     EDDAV:  cpu time    1.4899: real time    1.4902
       DOS:  cpu time    0.0002: real time    0.0002
    CHARGE:  cpu time    0.1069: real time    0.1069
    MIXING:  cpu time    0.0059: real time    0.0059
    --------------------------------------------
      LOOP:  cpu time    1.7928: real time    1.7939

 eigenvalue-minimisations  :   288
 total energy-change (2. order) :-0.8716870E-07  (-0.2156746E-07)
 number of electron      73.9999983 magnetization 
 augmentation part        1.7287657 magnetization 

 eigenvalues of (default mixing * dielectric matrix)
  average eigenvalue GAMMA=   1.5189
  2.4015  1.0776  1.0776

  free energy =  -0.205735769115E+03  energy without entropy=  -0.205735769115E+03


--------------------------------------------------------------------------------------------------------




--------------------------------------- Iteration     61(   5)  ---------------------------------------


    POTLOK:  cpu time    0.1892: real time    0.1896
    SETDIJ:  cpu time    0.0016: real time    0.0016
     EDDAV:  cpu time    1.4872: real time    1.4877
       DOS:  cpu time    0.0002: real time    0.0002
    --------------------------------------------
      LOOP:  cpu time    1.6782: real time    1.6790

 eigenvalue-minimisations  :   288
 total energy-change (2. order) :-0.6621849E-07  (-0.3452596E-08)
 number of electron      73.9999983 magnetization 
 augmentation part        1.7287657 magnetization 

  free energy =  -0.205735769182E+03  energy without entropy=  -0.205735769182E+03


--------------------------------------------------------------------------------------------------------




------------------------ aborting loop because EDIFF is reached ----------------------------------------


    CHARGE:  cpu time    0.1042: real time    0.1043
    FORLOC:  cpu time    0.0388: real time    0.0388
    FORNL :  cpu time    0.2292: real time    0.2292
    STRESS:  cpu time    0.6742: real time    0.6744
    FORCOR:  cpu time    0.1596: real time    0.1596
    FORHAR:  cpu time    0.0837: real time    0.0837
    MIXING:  cpu time    0.0060: real time    0.0060
    OFIELD:  cpu time    0.0001: real time    0.0001

  Number of pair interactions contributing to vdW energy:   23425
  Edisp (eV):   -0.88362
    FORVDW:  cpu time    0.0041: real time    0.0041

  FORCE on cell =-STRESS in cart. coord.  units (eV):
  Direction    XX          YY          ZZ          XY          YZ          ZX
  --------------------------------------------------------------------------------------
  Alpha Z     2.86547     2.86547     2.86547
  Ewald    1433.82757  2301.12873  1459.40412 -1543.27863 -1503.93517  1647.98220
  Hartree  2033.65297  2797.54252  2053.54557 -1359.36693 -1328.24628  1423.79728
  E(xc)    -260.80580  -260.62620  -260.79269    -0.25380    -0.23676     0.35394
  Local   -4092.27408 -5733.50297 -4138.90012  2912.49903  2840.78167 -3091.23324
  n-local  -123.33777  -121.59464  -123.09721    -1.38691    -1.13282     3.44441
  augment    -1.13758    -1.04639    -1.12774    -0.10220    -0.09109     0.18845
  Kinetic  1006.54693  1014.78594  1007.44898    -8.90162    -7.90761    16.18046
  Fock        0.00000     0.00000     0.00000     0.00000     0.00000     0.00000
  vdW        -0.21726    -0.48868    -0.22536     0.56431     0.54688    -0.60471
  -------------------------------------------------------------------------------------
  Total      -0.87956    -0.93621    -0.87898    -0.22675    -0.22117     0.10879
  in kB      -0.17615    -0.18750    -0.17603    -0.04541    -0.04429     0.02179
  external pressure =       -0.18 kB  Pullay stress =        0.00 kB



--------------------------------------------------------------------------------------------------------



  FREE ENERGIE OF THE ION-ELECTRON SYSTEM (eV)
  ---------------------------------------------------
  free  energy   TOTEN  =      -206.61939402 eV

  energy  without entropy=     -206.61939402  energy(sigma->0) =     -206.61939402
 
 d Force = 0.2273119E-05[ 0.649E-07, 0.448E-05]  d Energy = 0.2704110E-05-0.431E-06
 d Force = 0.3612932E-02[ 0.361E-02, 0.361E-02]  d Ewald  = 0.3612937E-02-0.496E-08


--------------------------------------------------------------------------------------------------------


    POTLOK:  cpu time    0.2663: real time    0.2672


--------------------------------------------------------------------------------------------------------




--------------------------------------------------------------------------------------------------------


    WAVPRE:  cpu time    0.0480: real time    0.0493
    FEWALD:  cpu time    0.0006: real time    0.0006
    ORTHCH:  cpu time    0.1049: real time    0.1049
     LOOP+:  cpu time   10.5822: real time   10.5910


--------------------------------------- Iteration     62(   1)  ---------------------------------------


    POTLOK:  cpu time    0.1905: real time    0.1908
    SETDIJ:  cpu time    0.0016: real time    0.0016
     EDDAV:  cpu time    1.4932: real time    1.4937
       DOS:  cpu time    0.0002: real time    0.0002
    CHARGE:  cpu time    0.1047: real time    0.1047
    MIXING:  cpu time    0.0051: real time    0.0051
    --------------------------------------------
      LOOP:  cpu time    1.7953: real time    1.7961

 eigenvalue-minimisations  :   288
 total energy-change (2. order) :-0.1525407E-03  (-0.2218361E-02)
 number of electron      73.9999983 magnetization 
 augmentation part        1.7287840 magnetization 

  free energy =  -0.205735921656E+03  energy without entropy=  -0.205735921656E+03


--------------------------------------------------------------------------------------------------------




--------------------------------------- Iteration     62(   2)  ---------------------------------------


    POTLOK:  cpu time    0.1879: real time    0.1892
    SETDIJ:  cpu time    0.0016: real time    0.0016
     EDDAV:  cpu time    1.4947: real time    1.4953
       DOS:  cpu time    0.0002: real time    0.0002
    CHARGE:  cpu time    0.1065: real time    0.1065
    MIXING:  cpu time    0.0055: real time    0.0055
    --------------------------------------------
      LOOP:  cpu time    1.7964: real time    1.7983

 eigenvalue-minimisations  :   288
 total energy-change (2. order) :-0.1056100E-04  (-0.2565003E-04)
 number of electron      73.9999983 magnetization 
 augmentation part        1.7287928 magnetization 

 eigenvalues of (default mixing * dielectric matrix)
  average eigenvalue GAMMA=   1.6869
  1.6869

  free energy =  -0.205735932217E+03  energy without entropy=  -0.205735932217E+03


--------------------------------------------------------------------------------------------------------




--------------------------------------- Iteration     62(   3)  ---------------------------------------


    POTLOK:  cpu time    0.1887: real time    0.1893
    SETDIJ:  cpu time    0.0016: real time    0.0016
     EDDAV:  cpu time    1.4913: real time    1.4920
       DOS:  cpu time    0.0002: real time    0.0002
    CHARGE:  cpu time    0.1044: real time    0.1044
    MIXING:  cpu time    0.0057: real time    0.0057
    --------------------------------------------
      LOOP:  cpu time    1.7918: real time    1.7931

 eigenvalue-minimisations  :   288
 total energy-change (2. order) : 0.3092421E-05  (-0.2514580E-05)
 number of electron      73.9999983 magnetization 
 augmentation part        1.7287873 magnetization 

 eigenvalues of (default mixing * dielectric matrix)
  average eigenvalue GAMMA=   1.5947
  0.9067  2.2828

  free energy =  -0.205735929125E+03  energy without entropy=  -0.205735929125E+03


--------------------------------------------------------------------------------------------------------




--------------------------------------- Iteration     62(   4)  ---------------------------------------


    POTLOK:  cpu time    0.1897: real time    0.1901
    SETDIJ:  cpu time    0.0016: real time    0.0016
     EDDAV:  cpu time    1.4856: real time    1.4859
       DOS:  cpu time    0.0002: real time    0.0002
    CHARGE:  cpu time    0.1069: real time    0.1070
    MIXING:  cpu time    0.0059: real time    0.0059
    --------------------------------------------
      LOOP:  cpu time    1.7900: real time    1.7908

 eigenvalue-minimisations  :   288
 total energy-change (2. order) :-0.7594535E-06  (-0.6681649E-06)
 number of electron      73.9999983 magnetization 
 augmentation part        1.7287918 magnetization 

 eigenvalues of (default mixing * dielectric matrix)
  average eigenvalue GAMMA=   1.4648
  2.3220  1.0362  1.0362

  free energy =  -0.205735929884E+03  energy without entropy=  -0.205735929884E+03


--------------------------------------------------------------------------------------------------------




--------------------------------------- Iteration     62(   5)  ---------------------------------------


    POTLOK:  cpu time    0.1897: real time    0.1903
    SETDIJ:  cpu time    0.0016: real time    0.0016
     EDDAV:  cpu time    1.2782: real time    1.2783
       DOS:  cpu time    0.0002: real time    0.0002
    --------------------------------------------
      LOOP:  cpu time    1.4696: real time    1.4704

 eigenvalue-minimisations  :   240
 total energy-change (2. order) : 0.1235612E-06  (-0.1074020E-06)
 number of electron      73.9999983 magnetization 
 augmentation part        1.7287918 magnetization 

  free energy =  -0.205735929761E+03  energy without entropy=  -0.205735929761E+03


--------------------------------------------------------------------------------------------------------




------------------------ aborting loop because EDIFF is reached ----------------------------------------


    CHARGE:  cpu time    0.1054: real time    0.1054
    FORLOC:  cpu time    0.0387: real time    0.0387
    FORNL :  cpu time    0.2291: real time    0.2292
    STRESS:  cpu time    0.6742: real time    0.6744
    FORCOR:  cpu time    0.1596: real time    0.1596
    FORHAR:  cpu time    0.0723: real time    0.0723
    MIXING:  cpu time    0.0060: real time    0.0060
    OFIELD:  cpu time    0.0001: real time    0.0001

  Number of pair interactions contributing to vdW energy:   23425
  Edisp (eV):   -0.88356
    FORVDW:  cpu time    0.0041: real time    0.0041

  FORCE on cell =-STRESS in cart. coord.  units (eV):
  Direction    XX          YY          ZZ          XY          YZ          ZX
  --------------------------------------------------------------------------------------
  Alpha Z     2.86547     2.86547     2.86547
  Ewald    1433.83928  2301.09094  1459.28121 -1543.34782 -1503.98004  1647.82438
  Hartree  2033.65400  2797.49027  2053.44268 -1359.41549 -1328.25193  1423.72675
  E(xc)    -260.80682  -260.62723  -260.79380    -0.25406    -0.23700     0.35358
  Local   -4092.28350 -5733.40816 -4138.67796  2912.61760  2840.82528 -3091.02314
  n-local  -123.33980  -121.59753  -123.09821    -1.38946    -1.13174     3.44526
  augment    -1.13763    -1.04640    -1.12775    -0.10222    -0.09102     0.18858
  Kinetic  1006.55119  1014.79161  1007.45733    -8.88521    -7.89282    16.19496
  Fock        0.00000     0.00000     0.00000     0.00000     0.00000     0.00000
  vdW        -0.21734    -0.48879    -0.22545     0.56420     0.54681    -0.60480
  -------------------------------------------------------------------------------------
  Total      -0.87515    -0.92982    -0.87648    -0.21245    -0.21246     0.10557
  in kB      -0.17527    -0.18622    -0.17554    -0.04255    -0.04255     0.02114
  external pressure =       -0.18 kB  Pullay stress =        0.00 kB



--------------------------------------------------------------------------------------------------------



  FREE ENERGIE OF THE ION-ELECTRON SYSTEM (eV)
  ---------------------------------------------------
  free  energy   TOTEN  =      -206.61948565 eV

  energy  without entropy=     -206.61948565  energy(sigma->0) =     -206.61948565
 
 d Force = 0.9295156E-04[ 0.371E-04, 0.149E-03]  d Energy = 0.9162427E-04 0.133E-05
 d Force = 0.1489962E+00[ 0.149E+00, 0.149E+00]  d Ewald  = 0.1489961E+00 0.193E-07


--------------------------------------------------------------------------------------------------------


    POTLOK:  cpu time    0.1919: real time    0.1923


--------------------------------------------------------------------------------------------------------


 Conjugate gradient step on ions:
 trial-energy change:   -0.000092  1 .order   -0.000093   -0.000149   -0.000037
  (g-gl).g = 0.629E-04      g.g   = 0.624E-04  gl.gl    = 0.718E-04
 g(Force)  = 0.624E-04   g(Stress)= 0.000E+00 ortho     = 0.157E-06
 gamma     =   0.87547
 trial     =   2.37894
 opt step  =   3.16811  (harmonic =   3.16811) maximal distance =0.00138800
 next E    =  -206.619493   (d E  =  -0.00010)


--------------------------------------------------------------------------------------------------------


  
 reached required accuracy - stopping structural energy minimisation
     LOOP+:  cpu time   10.1319: real time   10.1407
    4ORBIT:  cpu time    0.0000: real time    0.0000

 total amount of memory used by VASP MPI-rank0   115437. kBytes
=======================================================================

   base      :      30000. kBytes
   nonlr-proj:       3146. kBytes
   fftplans  :      12889. kBytes
   grid      :      63725. kBytes
   one-center:        116. kBytes
   wavefun   :       5561. kBytes
 
  
  
 General timing and accounting informations for this job:
 ========================================================
  
                  Total CPU time used (sec):      788.516
                            User time (sec):      785.121
                          System time (sec):        3.395
                         Elapsed time (sec):      789.979
  
                   Maximum memory used (kb):      296724.
                   Average memory used (kb):           0.
  
                          Minor page faults:        42319
                          Major page faults:            0
                 Voluntary context switches:         7017
