 vasp.5.4.4.18Apr17-6-g9f103f2a35 (build Jun 30 2017 19:19:18) complex          
  
 executed on         MareNostrum4 date 2022.12.13  11:22:56
 running on   48 total cores
 distrk:  each k-point on   48 cores,    1 groups
 distr:  one band on NCORES_PER_BAND=   1 cores,   48 groups


--------------------------------------------------------------------------------------------------------


 INCAR:
 POTCAR:    PAW_PBE Ru 04Feb2005                  
 POTCAR:    PAW_PBE H 15Jun2001                   
 POTCAR:    PAW_PBE C 08Apr2002                   

 ----------------------------------------------------------------------------- 
|                                                                             |
|           W    W    AA    RRRRR   N    N  II  N    N   GGGG   !!!           |
|           W    W   A  A   R    R  NN   N  II  NN   N  G    G  !!!           |
|           W    W  A    A  R    R  N N  N  II  N N  N  G       !!!           |
|           W WW W  AAAAAA  RRRRR   N  N N  II  N  N N  G  GGG   !            |
|           WW  WW  A    A  R   R   N   NN  II  N   NN  G    G                |
|           W    W  A    A  R    R  N    N  II  N    N   GGGG   !!!           |
|                                                                             |
|      For optimal performance we recommend to set                            |
|        NCORE= 4 - approx SQRT( number of cores)                             |
|      NCORE specifies how many cores store one orbital (NPAR=cpu/NCORE).     |
|      This setting can  greatly improve the performance of VASP for DFT.     |
|      The default,   NCORE=1            might be grossly inefficient         |
|      on modern multi-core architectures or massively parallel machines.     |
|      Do your own testing !!!!                                               |
|      Unfortunately you need to use the default for GW and RPA calculations. |
|      (for HF NCORE is supported but not extensively tested yet)             |
|                                                                             |
 ----------------------------------------------------------------------------- 

 POTCAR:    PAW_PBE Ru 04Feb2005                  
  local pseudopotential read in
  partial core-charges read in
  partial kinetic energy density read in
  atomic valenz-charges read in
  non local Contribution for L=           2  read in
    real space projection operators read in
  non local Contribution for L=           2  read in
    real space projection operators read in
  non local Contribution for L=           0  read in
    real space projection operators read in
  non local Contribution for L=           0  read in
    real space projection operators read in
  non local Contribution for L=           1  read in
    real space projection operators read in
  non local Contribution for L=           1  read in
    real space projection operators read in
    PAW grid and wavefunctions read in
 
   number of l-projection  operators is LMAX  =           6
   number of lm-projection operators is LMMAX =          18
 
 POTCAR:    PAW_PBE H 15Jun2001                   
  local pseudopotential read in
  atomic valenz-charges read in
  non local Contribution for L=           0  read in
    real space projection operators read in
  non local Contribution for L=           0  read in
    real space projection operators read in
  non local Contribution for L=           1  read in
    real space projection operators read in
    PAW grid and wavefunctions read in
 
   number of l-projection  operators is LMAX  =           3
   number of lm-projection operators is LMMAX =           5
 
 POTCAR:    PAW_PBE C 08Apr2002                   
  local pseudopotential read in
  partial core-charges read in
  partial kinetic energy density read in
  atomic valenz-charges read in
  non local Contribution for L=           0  read in
    real space projection operators read in
  non local Contribution for L=           0  read in
    real space projection operators read in
  non local Contribution for L=           1  read in
    real space projection operators read in
  non local Contribution for L=           1  read in
    real space projection operators read in
    PAW grid and wavefunctions read in
 
   number of l-projection  operators is LMAX  =           4
   number of lm-projection operators is LMMAX =           8
 
 Optimization of the real space projectors (new method)

 maximal supplied QI-value         = 13.98
 optimisation between [QCUT,QGAM] = [ 10.77, 21.68] = [ 32.47,131.56] Ry 
 Optimized for a Real-space Cutoff    1.51 Angstroem

   l    n(q)    QCUT    max X(q) W(low)/X(q) W(high)/X(q)  e(spline) 
   2      9    10.768    61.733    0.26E-03    0.97E-04    0.28E-06
   2      9    10.768    59.886    0.26E-03    0.10E-03    0.29E-06
   0     10    10.768    23.358    0.12E-03    0.28E-03    0.38E-06
   0     10    10.768    11.320    0.93E-04    0.23E-03    0.31E-06
   1      9    10.768    14.765    0.48E-03    0.21E-03    0.19E-06
   1      9    10.768     8.283    0.36E-03    0.16E-03    0.15E-06
 Optimization of the real space projectors (new method)

 maximal supplied QI-value         = 34.20
 optimisation between [QCUT,QGAM] = [ 10.60, 21.55] = [ 31.48,130.03] Ry 
 Optimized for a Real-space Cutoff    1.23 Angstroem

   l    n(q)    QCUT    max X(q) W(low)/X(q) W(high)/X(q)  e(spline) 
   0      8    10.603    19.460    0.37E-03    0.59E-03    0.23E-06
   0      8    10.603    12.209    0.35E-03    0.56E-03    0.22E-06
   1      7    10.603     4.655    0.70E-04    0.28E-03    0.29E-06
 Optimization of the real space projectors (new method)

 maximal supplied QI-value         = 25.13
 optimisation between [QCUT,QGAM] = [ 10.81, 21.61] = [ 32.71,130.83] Ry 
 Optimized for a Real-space Cutoff    1.23 Angstroem

   l    n(q)    QCUT    max X(q) W(low)/X(q) W(high)/X(q)  e(spline) 
   0      8    10.807   115.676    0.36E-03    0.72E-03    0.24E-06
   0      8    10.807    87.132    0.35E-03    0.71E-03    0.24E-06
   1      7    10.807     4.429    0.19E-03    0.39E-03    0.11E-06
   1      7    10.807     2.733    0.14E-03    0.28E-03    0.13E-06
  PAW_PBE Ru 04Feb2005                  :
 energy of atom  1       EATOM= -454.8837
 kinetic energy error for atom=    0.0028 (will be added to EATOM!!)
  PAW_PBE H 15Jun2001                   :
 energy of atom  2       EATOM=  -12.4884
 kinetic energy error for atom=    0.0045 (will be added to EATOM!!)
  PAW_PBE C 08Apr2002                   :
 energy of atom  3       EATOM= -147.1560
 kinetic energy error for atom=    0.0116 (will be added to EATOM!!)
 
 
 POSCAR: Ru  H  C                                
  positions in cartesian coordinates
  No initial velocities read in
 exchange correlation table for  LEXCH =        8
   RHO(1)=    0.500       N(1)  =     2000
   RHO(2)=  100.500       N(2)  =     4000
 


--------------------------------------------------------------------------------------------------------


 ion  position               nearest neighbor table
   1  0.000  0.083  0.000-  14 2.65  13 2.65 114 2.65  57 2.71   2 2.71 101 2.71 102 2.71   3 2.71
                           107 2.71
   2  0.167  0.000  0.000-  69 2.65  14 2.65  16 2.65  57 2.71   1 2.71  60 2.71   4 2.71   3 2.71
                            58 2.71
   3  0.083  0.167  0.000-  19 2.65  15 2.65  14 2.65   7 2.71 107 2.71   1 2.71   8 2.71   2 2.71
                             4 2.71
   4  0.250  0.083  0.000-  17 2.65  16 2.65  15 2.65  60 2.71   5 2.71   6 2.71   2 2.71   8 2.71
                             3 2.71
   5  0.417  0.000  0.000-  72 2.65  17 2.65 109 2.65 153 2.71   4 2.71  97 2.71  60 2.71 151 2.71
                             6 2.71
   6  0.333  0.167  0.000-  22 2.65  18 2.65  17 2.65  10 2.71   8 2.71   4 2.71  11 2.71   5 2.71
                            97 2.71
   7  1.000  0.333  0.000-  19 2.65 120 2.65  20 2.65   3 2.71 107 2.71 108 2.71   8 2.71 149 2.71
                             9 2.71
   8  0.167  0.250  0.000-  22 2.65  15 2.65  20 2.65  10 2.71   6 2.71   3 2.71   7 2.71   4 2.71
                             9 2.71
   9  0.083  0.417  0.000-  21 2.65  61 2.65  20 2.65  49 2.71  50 2.71 149 2.71  10 2.71   8 2.71
                             7 2.71
  10  0.250  0.333  0.000-  22 2.65  23 2.65  21 2.65   6 2.71   8 2.71   9 2.71  11 2.71  50 2.71
                            12 2.71
  11  0.417  0.250  0.000- 115 2.65  18 2.65  23 2.65 103 2.71  99 2.71   6 2.71  10 2.71  97 2.71
                            12 2.71
  12  0.333  0.417  0.000-  24 2.65  64 2.65  23 2.65  52 2.71  53 2.71 103 2.71  50 2.71  11 2.71
                            10 2.71
  13  0.000  0.000  0.107-  25 2.64 125 2.64  81 2.64 101 2.65   1 2.65  57 2.65  14 2.71 168 2.71
                            69 2.71 113 2.71  68 2.71 114 2.71
  14  0.083  0.083  0.107-  25 2.64  26 2.64  27 2.64   1 2.65   2 2.65   3 2.65  69 2.71  13 2.71
                           114 2.71  16 2.71  19 2.71  15 2.71
  15  0.167  0.167  0.107-  32 2.64  28 2.64  27 2.64   8 2.65   3 2.65   4 2.65  20 2.71  22 2.71
                            17 2.71  19 2.71  16 2.71  14 2.71
  16  0.250  0.000  0.107-  84 2.64  26 2.64  28 2.64  60 2.65   4 2.65   2 2.65  17 2.71  72 2.71
                            69 2.71  14 2.71  15 2.71  71 2.71
  17  0.333  0.083  0.107-  29 2.64  30 2.64  28 2.64   4 2.65   5 2.65   6 2.65  72 2.71  16 2.71
                            15 2.71 109 2.71  22 2.71  18 2.71
  18  0.417  0.167  0.107- 121 2.64  30 2.64  35 2.64  11 2.65   6 2.65  97 2.65  23 2.71 115 2.71
                           110 2.71  22 2.71 109 2.71  17 2.71
  19  1.000  0.250  0.107-  31 2.64 131 2.64  27 2.64 107 2.65   7 2.65   3 2.65 114 2.71 119 2.71
                            20 2.71  15 2.71 120 2.71  14 2.71
  20  0.083  0.333  0.107-  33 2.64  31 2.64  32 2.64   8 2.65   7 2.65   9 2.65  15 2.71  22 2.71
                           120 2.71  21 2.71  19 2.71  61 2.71
  21  0.167  0.417  0.107-  33 2.64  34 2.64  74 2.64   9 2.65  50 2.65  10 2.65  62 2.71  61 2.71
                            20 2.71  64 2.71  22 2.71  23 2.71
  22  0.250  0.250  0.107-  34 2.64  30 2.64  32 2.64   8 2.65  10 2.65   6 2.65  15 2.71  20 2.71
                            23 2.71  18 2.71  17 2.71  21 2.71
  23  0.333  0.333  0.107-  36 2.64  34 2.64  35 2.64  11 2.65  10 2.65  12 2.65  18 2.71 115 2.71
                            24 2.71  22 2.71  64 2.71  21 2.71
  24  0.417  0.417  0.107-  77 2.64  36 2.64 127 2.64  12 2.65  53 2.65 103 2.65  65 2.71  64 2.71
                            23 2.71 157 2.71 115 2.71 116 2.71
  25  0.000  0.083  0.214- 138 2.59  37 2.59  38 2.59  14 2.64 114 2.64  13 2.64  27 2.71 131 2.71
                           126 2.71  26 2.71 125 2.71  81 2.71
  26  0.167  1.000  0.214-  93 2.59  38 2.59  40 2.59  69 2.64  14 2.64  16 2.64  84 2.71  25 2.71
                            28 2.71  81 2.71  82 2.71  27 2.71
  27  0.083  0.167  0.214-  38 2.59  39 2.59  43 2.59  19 2.64  15 2.64  14 2.64 131 2.71  25 2.71
                            31 2.71  32 2.71  28 2.71  26 2.71
  28  0.250  0.083  0.214-  41 2.59  39 2.59  40 2.59  16 2.64  15 2.64  17 2.64  29 2.71  84 2.71
                            30 2.71  26 2.71  27 2.71  32 2.71
  29  0.417  0.000  0.213- 133 2.59  96 2.59  41 2.59  17 2.64  72 2.64 109 2.64  30 2.71  28 2.71
                            84 2.71 175 2.71 177 2.71 121 2.71
  30  0.333  0.167  0.213-  41 2.59  42 2.59  46 2.59  17 2.64  18 2.64  22 2.64  29 2.71  28 2.71
                            35 2.71  32 2.71  34 2.71 121 2.71
  31  0.000  0.333  0.213-  44 2.59 144 2.59  43 2.59  19 2.64  20 2.64 120 2.64 131 2.71  27 2.71
                            32 2.71  33 2.71 132 2.71 173 2.71
  32  0.167  0.250  0.214-  44 2.59  46 2.59  39 2.59  20 2.64  15 2.64  22 2.64  33 2.71  34 2.71
                            31 2.71  27 2.71  28 2.71  30 2.71
  33  0.083  0.417  0.213-  45 2.58  85 2.59  44 2.59  21 2.64  20 2.64  61 2.64  34 2.71  32 2.71
                            74 2.71  31 2.71  73 2.71 173 2.72
  34  0.250  0.333  0.214-  47 2.58  45 2.59  46 2.59  22 2.64  23 2.64  21 2.64  33 2.71  32 2.71
                            35 2.71  36 2.71  30 2.71  74 2.71
  35  0.417  0.250  0.214-  47 2.58  42 2.59 139 2.59  18 2.64  23 2.64 115 2.64 121 2.71  36 2.71
                            34 2.71 123 2.71  30 2.71 127 2.71
  36  0.333  0.417  0.213-  48 2.59  47 2.59  88 2.60  23 2.64  24 2.64  64 2.64  77 2.71 127 2.71
                            35 2.71  34 2.71  76 2.71  74 2.71
  37  0.000  1.000  0.316-  81 2.59  25 2.59 125 2.59  93 2.71 138 2.71  38 2.71  92 2.71 192 2.71
                           137 2.71
  38  0.083  0.083  0.316-  27 2.59  26 2.59  25 2.59  40 2.71  93 2.71  39 2.71 138 2.71  43 2.71
                            37 2.71
  39  0.167  0.167  0.317-  27 2.59  28 2.59  32 2.59  40 2.71  38 2.71  46 2.71  41 2.71  44 2.71
                            43 2.71
  40  0.250  0.000  0.317-  28 2.59  84 2.59  26 2.59  38 2.71  39 2.71  93 2.71  41 2.71  95 2.71
                            96 2.71
  41  0.333  0.083  0.317-  28 2.59  30 2.59  29 2.59  96 2.71  46 2.71  39 2.71 133 2.71  40 2.71
                            42 2.71
  42  0.417  0.167  0.316-  35 2.59  30 2.59 121 2.59  47 2.70 139 2.71 134 2.71  46 2.71  41 2.71
                           133 2.71
  43  0.000  0.250  0.317- 131 2.59  27 2.59  31 2.59 143 2.71 138 2.71  38 2.71  39 2.71  44 2.71
                           144 2.71
  44  0.083  0.333  0.316-  32 2.59  31 2.59  33 2.59  45 2.71  46 2.71  39 2.71 144 2.71  43 2.71
                            85 2.71
  45  0.167  0.417  0.316-  33 2.58  74 2.59  34 2.59  44 2.71  85 2.71  46 2.71  88 2.71  47 2.72
                            86 2.72
  46  0.250  0.250  0.317-  32 2.59  34 2.59  30 2.59  47 2.70  45 2.71  41 2.71  39 2.71  44 2.71
                            42 2.71
  47  0.333  0.333  0.316-  35 2.58  34 2.58  36 2.59  42 2.70  46 2.70 139 2.71  45 2.72  48 2.72
                            88 2.73
  48  0.417  0.416  0.316- 127 2.58  77 2.59  36 2.59 140 2.70 139 2.71 181 2.71  47 2.72  89 2.73
                            88 2.73
  49  0.000  0.583  0.000-  62 2.65  61 2.65 162 2.65   9 2.71  50 2.71 149 2.71 150 2.71  51 2.71
                           155 2.71
  50  0.167  0.500  0.000-  21 2.65  62 2.65  64 2.65   9 2.71  49 2.71  52 2.71  12 2.71  51 2.71
                            10 2.71
  51  0.083  0.667  0.000-  67 2.65  63 2.65  62 2.65  55 2.71 155 2.71  49 2.71  56 2.71  50 2.71
                            52 2.71
  52  0.250  0.583  0.000-  65 2.65  64 2.65  63 2.65  12 2.71  53 2.71  54 2.71  50 2.71  56 2.71
                            51 2.71
  53  0.417  0.500  0.000-  24 2.65  65 2.65 157 2.65 145 2.71 105 2.71  12 2.71  52 2.71 103 2.71
                            54 2.71
  54  0.333  0.667  0.000-  70 2.65  66 2.65  65 2.65  58 2.71  56 2.71  59 2.71 145 2.71  52 2.71
                            53 2.71
  55  1.000  0.833  0.000-  67 2.65 168 2.65  68 2.65  51 2.71 155 2.71 156 2.71  56 2.71 101 2.71
                            57 2.71
  56  0.167  0.750  0.000-  70 2.65  63 2.65  68 2.65  54 2.71  58 2.71  51 2.71  55 2.71  52 2.71
                            57 2.71
  57  0.083  0.917  0.000-  69 2.65  13 2.65  68 2.65   1 2.71   2 2.71 101 2.71  58 2.71  56 2.71
                            55 2.71
  58  0.250  0.833  0.000-  70 2.65  71 2.65  69 2.65  54 2.71  59 2.71  56 2.71  57 2.71  60 2.71
                             2 2.71
  59  0.417  0.750  0.000-  66 2.65  71 2.65 163 2.65  58 2.71  54 2.71 151 2.71 147 2.71 145 2.71
                            60 2.71
  60  0.333  0.917  0.000-  16 2.65  71 2.65  72 2.65   4 2.71   2 2.71  58 2.71   5 2.71  59 2.71
                           151 2.71
  61  0.000  0.500  0.107-  33 2.64  73 2.64 173 2.64 149 2.65  49 2.65   9 2.65  62 2.71 120 2.71
                           161 2.71  21 2.71 162 2.71  20 2.71
  62  0.083  0.583  0.107-  73 2.64  75 2.64  74 2.64  49 2.65  50 2.65  51 2.65  21 2.71  61 2.71
                           162 2.71  64 2.71  67 2.71  63 2.71
  63  0.167  0.667  0.107-  80 2.64  75 2.64  76 2.64  56 2.65  51 2.65  52 2.65  68 2.71  70 2.71
                            65 2.71  67 2.71  64 2.71  62 2.71
  64  0.250  0.500  0.107-  36 2.64  76 2.64  74 2.64  52 2.65  12 2.65  50 2.65  65 2.71  24 2.71
                            21 2.71  62 2.71  63 2.71  23 2.71
  65  0.333  0.583  0.107-  77 2.64  78 2.64  76 2.64  52 2.65  53 2.65  54 2.65  24 2.71  64 2.71
                            63 2.71 157 2.71  70 2.71  66 2.71
  66  0.417  0.667  0.107- 169 2.64  78 2.64  83 2.64  59 2.65 145 2.65  54 2.65  71 2.71 163 2.71
                           158 2.71  70 2.71 157 2.71  65 2.71
  67  1.000  0.750  0.107- 179 2.64  79 2.64  75 2.64 155 2.65  55 2.65  51 2.65 162 2.71 167 2.71
                            68 2.71  63 2.71 168 2.71  62 2.71
  68  0.083  0.833  0.107-  81 2.64  79 2.64  80 2.64  56 2.65  55 2.65  57 2.65  63 2.71  70 2.71
                           168 2.71  69 2.71  67 2.71  13 2.71
  69  0.167  0.917  0.107-  81 2.64  26 2.64  82 2.64  57 2.65   2 2.65  58 2.65  14 2.71  13 2.71
                            68 2.71  16 2.71  70 2.71  71 2.71
  70  0.250  0.750  0.107-  82 2.64  80 2.64  78 2.64  56 2.65  54 2.65  58 2.65  63 2.71  68 2.71
                            71 2.71  66 2.71  65 2.71  69 2.71
  71  0.333  0.833  0.107-  84 2.64  82 2.64  83 2.64  59 2.65  60 2.65  58 2.65  66 2.71 163 2.71
                            72 2.71  70 2.71  16 2.71  69 2.71
  72  0.417  0.917  0.107-  29 2.64 175 2.64  84 2.64   5 2.65  60 2.65 151 2.65  17 2.71  16 2.71
                           164 2.71  71 2.71 109 2.71 163 2.71
  73  0.000  0.583  0.214-  85 2.59  86 2.59 186 2.59  62 2.64 162 2.64  61 2.64  75 2.71 179 2.71
                            74 2.71 174 2.71  33 2.71 173 2.72
  74  0.167  0.500  0.214-  45 2.59  88 2.59  86 2.59  64 2.64  62 2.64  21 2.64  73 2.71  33 2.71
                            76 2.71  75 2.71  36 2.71  34 2.71
  75  0.083  0.667  0.214-  86 2.59  87 2.59  91 2.59  67 2.64  62 2.64  63 2.64  73 2.71 179 2.71
                            79 2.71  80 2.71  74 2.71  76 2.71
  76  0.250  0.583  0.214-  87 2.59  89 2.59  88 2.59  65 2.64  64 2.64  63 2.64  77 2.71  78 2.71
                            74 2.71  36 2.71  80 2.71  75 2.71
  77  0.417  0.500  0.213- 181 2.59  48 2.59  89 2.59  24 2.64  65 2.64 157 2.64  76 2.71  78 2.71
                           127 2.71  36 2.71 129 2.72 169 2.72
  78  0.333  0.667  0.214-  89 2.58  90 2.59  94 2.59  65 2.64  66 2.64  70 2.64  77 2.71  76 2.71
                           169 2.71  83 2.71  80 2.71  82 2.71
  79  1.000  0.833  0.214-  92 2.59 192 2.59  91 2.59 168 2.64  68 2.64  67 2.64  81 2.71 179 2.71
                           125 2.71  75 2.71  80 2.71 180 2.71
  80  0.167  0.750  0.214-  87 2.59  92 2.59  94 2.59  63 2.64  70 2.64  68 2.64  81 2.71  82 2.71
                            75 2.71  79 2.71  76 2.71  78 2.71
  81  0.083  0.917  0.214-  37 2.59  93 2.59  92 2.59  68 2.64  69 2.64  13 2.64  80 2.71  82 2.71
                            79 2.71  26 2.71 125 2.71  25 2.71
  82  0.250  0.833  0.214-  95 2.59  93 2.59  94 2.59  70 2.64  69 2.64  71 2.64  81 2.71  80 2.71
                            26 2.71  84 2.71  78 2.71  83 2.71
  83  0.417  0.750  0.214- 187 2.58  90 2.58  95 2.59 163 2.64  66 2.64  71 2.64 169 2.71 171 2.71
                           175 2.71  78 2.71  82 2.71  84 2.71
  84  0.333  0.917  0.214-  96 2.59  95 2.59  40 2.59  16 2.64  71 2.64  72 2.64  28 2.71  29 2.71
                            26 2.71 175 2.71  82 2.71  83 2.71
  85  0.000  0.500  0.316-  73 2.59  33 2.59 173 2.59 185 2.71  45 2.71  86 2.71 186 2.71  44 2.71
                           144 2.71
  86  0.083  0.583  0.317-  74 2.59  75 2.59  73 2.59  88 2.71  85 2.71 186 2.71  91 2.71  87 2.71
                            45 2.72
  87  0.167  0.667  0.317-  80 2.59  75 2.59  76 2.59  92 2.71  91 2.71  89 2.71  94 2.71  88 2.71
                            86 2.71
  88  0.250  0.500  0.317-  74 2.59  76 2.59  36 2.60  86 2.71  45 2.71  87 2.71  89 2.72  47 2.73
                            48 2.73
  89  0.333  0.584  0.317-  78 2.58  76 2.59  77 2.59  94 2.71  90 2.71  87 2.71 181 2.72  88 2.72
                            48 2.73
  90  0.417  0.667  0.317-  83 2.58  78 2.59 169 2.59  89 2.71 187 2.71  95 2.71  94 2.71 182 2.72
                           181 2.72
  91  1.000  0.750  0.317- 179 2.59  75 2.59  79 2.59  92 2.71  87 2.71  86 2.71 191 2.71 192 2.71
                           186 2.71
  92  0.083  0.833  0.317-  80 2.59  79 2.59  81 2.59  87 2.71  91 2.71  94 2.71 192 2.71  37 2.71
                            93 2.71
  93  0.167  0.917  0.316-  26 2.59  81 2.59  82 2.59  37 2.71  38 2.71  40 2.71  92 2.71  95 2.71
                            94 2.71
  94  0.250  0.750  0.317-  80 2.59  82 2.59  78 2.59  89 2.71  87 2.71  92 2.71  90 2.71  95 2.71
                            93 2.71
  95  0.333  0.833  0.317-  83 2.59  82 2.59  84 2.59 187 2.70  90 2.71  40 2.71  94 2.71  93 2.71
                            96 2.71
  96  0.417  0.917  0.317-  84 2.59  29 2.59 175 2.59 187 2.71 188 2.71 133 2.71  41 2.71  40 2.71
                            95 2.71
  97  0.500  0.083  0.000- 110 2.65 109 2.65  18 2.65 153 2.71  98 2.71  99 2.71   5 2.71  11 2.71
                             6 2.71
  98  0.667  0.000  0.000- 165 2.65 110 2.65 112 2.65 156 2.71 100 2.71  97 2.71 153 2.71  99 2.71
                           154 2.71
  99  0.583  0.167  0.000- 115 2.65 111 2.65 110 2.65 103 2.71 104 2.71  11 2.71 100 2.71  97 2.71
                            98 2.71
 100  0.750  0.083  0.000- 112 2.65 111 2.65 113 2.65 156 2.71  98 2.71  99 2.71 101 2.71 104 2.71
                           102 2.71
 101  0.917  0.000  0.000-  13 2.65 168 2.65 113 2.65   1 2.71  57 2.71 100 2.71 156 2.71 102 2.71
                            55 2.71
 102  0.833  0.167  0.000- 114 2.65 118 2.65 113 2.65 106 2.71 107 2.71   1 2.71 104 2.71 101 2.71
                           100 2.71
 103  0.500  0.333  0.000- 115 2.65 116 2.65  24 2.65  99 2.71 104 2.71  11 2.71  12 2.71 105 2.71
                            53 2.71
 104  0.667  0.250  0.000- 111 2.65 116 2.65 118 2.65  99 2.71 103 2.71 106 2.71 102 2.71 100 2.71
                           105 2.71
 105  0.583  0.417  0.000- 157 2.65 116 2.65 117 2.65 145 2.71  53 2.71 103 2.71 146 2.71 104 2.71
                           106 2.71
 106  0.750  0.333  0.000- 119 2.65 118 2.65 117 2.65 102 2.71 107 2.71 108 2.71 104 2.71 146 2.71
                           105 2.71
 107  0.917  0.250  0.000-  19 2.65 114 2.65 119 2.65   7 2.71   3 2.71 102 2.71 106 2.71   1 2.71
                           108 2.71
 108  0.833  0.417  0.000- 160 2.65 120 2.65 119 2.65 148 2.71 146 2.71   7 2.71 106 2.71 149 2.71
                           107 2.71
 109  0.500  0.000  0.107- 121 2.64  29 2.64 177 2.64 153 2.65  97 2.65   5 2.65 110 2.71 165 2.71
                            72 2.71  17 2.71  18 2.71 164 2.71
 110  0.583  0.083  0.107- 121 2.64 122 2.64 123 2.64  97 2.65  98 2.65  99 2.65 165 2.71 109 2.71
                            18 2.71 112 2.71 115 2.71 111 2.71
 111  0.667  0.167  0.107- 123 2.64 124 2.64 128 2.64 104 2.65 100 2.65  99 2.65 116 2.71 118 2.71
                           113 2.71 115 2.71 112 2.71 110 2.71
 112  0.750  0.000  0.107- 122 2.64 180 2.64 124 2.64 156 2.65 100 2.65  98 2.65 113 2.71 168 2.71
                           165 2.71 110 2.71 111 2.71 167 2.71
 113  0.833  0.083  0.107- 125 2.64 126 2.64 124 2.64 101 2.65 100 2.65 102 2.65 168 2.71 112 2.71
                            13 2.71 111 2.71 114 2.71 118 2.71
 114  0.917  0.167  0.107- 126 2.64  25 2.64 131 2.64 102 2.65 107 2.65   1 2.65 119 2.71  19 2.71
                           118 2.71  14 2.71 113 2.71  13 2.71
 115  0.500  0.250  0.107- 123 2.64  35 2.64 127 2.64  11 2.65 103 2.65  99 2.65  18 2.71  23 2.71
                           116 2.71 111 2.71  24 2.71 110 2.71
 116  0.583  0.333  0.107- 129 2.64 128 2.64 127 2.64 104 2.65 105 2.65 103 2.65 111 2.71 118 2.71
                           117 2.71 115 2.71 157 2.71  24 2.71
 117  0.667  0.417  0.107- 129 2.64 130 2.64 170 2.64 146 2.65 105 2.65 106 2.65 158 2.71 160 2.71
                           157 2.71 119 2.71 116 2.71 118 2.71
 118  0.750  0.250  0.107- 126 2.64 130 2.64 128 2.64 106 2.65 102 2.65 104 2.65 111 2.71 116 2.71
                           119 2.71 114 2.71 113 2.71 117 2.71
 119  0.833  0.333  0.107- 130 2.64 132 2.64 131 2.64 106 2.65 107 2.65 108 2.65 114 2.71  19 2.71
                           118 2.71 117 2.71 160 2.71 120 2.71
 120  0.917  0.417  0.107- 173 2.64  31 2.64 132 2.64 149 2.65   7 2.65 108 2.65 161 2.71  61 2.71
                            20 2.71 160 2.71  19 2.71 119 2.71
 121  0.500  0.083  0.213- 134 2.59 133 2.59  42 2.59 110 2.64  18 2.64 109 2.64 123 2.71 122 2.71
                            35 2.71  30 2.71 177 2.71  29 2.71
 122  0.667  0.000  0.213- 134 2.59 189 2.59 136 2.59 110 2.64 165 2.64 112 2.64 121 2.71 180 2.71
                           178 2.71 123 2.71 177 2.71 124 2.71
 123  0.583  0.167  0.214- 139 2.59 134 2.59 135 2.59 115 2.64 111 2.64 110 2.64 121 2.71  35 2.71
                           128 2.71 122 2.71 127 2.71 124 2.71
 124  0.750  0.083  0.214- 137 2.59 135 2.59 136 2.59 113 2.64 112 2.64 111 2.64 125 2.71 180 2.71
                           126 2.71 128 2.71 122 2.71 123 2.71
 125  0.917  0.000  0.214- 192 2.59 137 2.59  37 2.59 113 2.64 168 2.64  13 2.64 124 2.71 180 2.71
                           126 2.71  79 2.71  25 2.71  81 2.71
 126  0.833  0.167  0.214- 138 2.59 137 2.59 142 2.59 114 2.64 113 2.64 118 2.64 125 2.71  25 2.71
                           124 2.71 130 2.71 131 2.71 128 2.71
 127  0.500  0.333  0.214-  48 2.58 140 2.59 139 2.59  24 2.64 116 2.64 115 2.64  77 2.71  36 2.71
                           129 2.71 123 2.71 128 2.71  35 2.71
 128  0.667  0.250  0.214- 140 2.59 135 2.59 142 2.59 118 2.64 116 2.64 111 2.64 130 2.71 129 2.71
                           124 2.71 123 2.71 126 2.71 127 2.71
 129  0.583  0.417  0.214- 181 2.58 141 2.59 140 2.59 117 2.64 116 2.64 157 2.64 130 2.71 128 2.71
                           170 2.71 127 2.71 169 2.71  77 2.72
 130  0.750  0.333  0.214- 141 2.59 142 2.59 143 2.59 118 2.64 117 2.64 119 2.64 129 2.71 128 2.71
                           126 2.71 132 2.71 131 2.71 170 2.71
 131  0.917  0.250  0.214- 138 2.59 143 2.59  43 2.59  19 2.64 114 2.64 119 2.64  27 2.71  31 2.71
                            25 2.71 126 2.71 132 2.71 130 2.71
 132  0.833  0.417  0.214- 184 2.58 144 2.59 143 2.59 160 2.64 119 2.64 120 2.64 173 2.71 172 2.71
                           130 2.71 131 2.71 170 2.71  31 2.71
 133  0.500  1.000  0.316- 177 2.59  29 2.59 121 2.59 188 2.70  96 2.71  41 2.71  42 2.71 134 2.71
                           189 2.71
 134  0.583  0.083  0.316- 121 2.59 123 2.59 122 2.59 139 2.71 189 2.71  42 2.71 133 2.71 136 2.71
                           135 2.71
 135  0.667  0.167  0.317- 124 2.59 128 2.59 123 2.59 139 2.71 140 2.71 137 2.71 136 2.71 142 2.71
                           134 2.71
 136  0.750  1.000  0.317- 180 2.59 124 2.59 122 2.59 137 2.71 192 2.71 191 2.71 135 2.71 189 2.71
                           134 2.71
 137  0.833  0.083  0.317- 124 2.59 125 2.59 126 2.59 136 2.71 192 2.71 142 2.71 135 2.71 138 2.71
                            37 2.71
 138  0.917  0.167  0.316- 131 2.59  25 2.59 126 2.59 142 2.71  43 2.71  38 2.71  37 2.71 143 2.71
                           137 2.71
 139  0.500  0.250  0.317- 123 2.59 127 2.59  35 2.59  48 2.71 134 2.71 135 2.71  42 2.71  47 2.71
                           140 2.71
 140  0.583  0.333  0.317- 127 2.59 128 2.59 129 2.59  48 2.70 181 2.71 135 2.71 141 2.71 139 2.71
                           142 2.71
 141  0.667  0.417  0.316- 130 2.59 129 2.59 170 2.59 181 2.71 184 2.71 182 2.71 140 2.71 142 2.71
                           143 2.71
 142  0.750  0.250  0.317- 130 2.59 128 2.59 126 2.59 137 2.71 138 2.71 143 2.71 135 2.71 140 2.71
                           141 2.71
 143  0.833  0.333  0.317- 131 2.59 132 2.59 130 2.59 184 2.71  43 2.71 144 2.71 138 2.71 142 2.71
                           141 2.71
 144  0.917  0.417  0.316- 132 2.59 173 2.59  31 2.59 185 2.71 184 2.71 143 2.71  44 2.71  43 2.71
                            85 2.71
 145  0.500  0.583  0.000- 157 2.65  66 2.65 158 2.65 105 2.71  53 2.71  54 2.71 146 2.71  59 2.71
                           147 2.71
 146  0.667  0.500  0.000- 160 2.65 117 2.65 158 2.65 108 2.71 148 2.71 105 2.71 145 2.71 147 2.71
                           106 2.71
 147  0.583  0.667  0.000- 159 2.65 163 2.65 158 2.65 151 2.71 152 2.71 148 2.71  59 2.71 146 2.71
                           145 2.71
 148  0.750  0.583  0.000- 160 2.65 161 2.65 159 2.65 108 2.71 146 2.71 147 2.71 149 2.71 152 2.71
                           150 2.71
 149  0.917  0.500  0.000-  61 2.65 120 2.65 161 2.65  49 2.71   9 2.71 148 2.71 108 2.71 150 2.71
                             7 2.71
 150  0.833  0.667  0.000- 162 2.65 166 2.65 161 2.65 154 2.71 155 2.71  49 2.71 152 2.71 149 2.71
                           148 2.71
 151  0.500  0.833  0.000- 164 2.65 163 2.65  72 2.65 147 2.71 152 2.71 153 2.71  59 2.71   5 2.71
                            60 2.71
 152  0.667  0.750  0.000- 159 2.65 164 2.65 166 2.65 147 2.71 151 2.71 154 2.71 150 2.71 148 2.71
                           153 2.71
 153  0.583  0.917  0.000- 109 2.65 165 2.65 164 2.65  97 2.71   5 2.71 151 2.71  98 2.71 152 2.71
                           154 2.71
 154  0.750  0.833  0.000- 167 2.65 166 2.65 165 2.65 150 2.71 155 2.71 156 2.71 152 2.71  98 2.71
                           153 2.71
 155  0.917  0.750  0.000-  67 2.65 162 2.65 167 2.65  55 2.71  51 2.71 150 2.71 154 2.71  49 2.71
                           156 2.71
 156  0.833  0.917  0.000- 112 2.65 168 2.65 167 2.65 100 2.71  98 2.71  55 2.71 154 2.71 101 2.71
                           155 2.71
 157  0.500  0.500  0.107-  77 2.64 169 2.64 129 2.64 145 2.65 105 2.65  53 2.65 158 2.71 117 2.71
                            24 2.71  65 2.71 116 2.71  66 2.71
 158  0.583  0.583  0.107- 169 2.64 170 2.64 171 2.64 146 2.65 145 2.65 147 2.65 117 2.71 157 2.71
                           160 2.71  66 2.71 159 2.71 163 2.71
 159  0.667  0.667  0.107- 176 2.64 172 2.64 171 2.64 147 2.65 152 2.65 148 2.65 164 2.71 163 2.71
                           158 2.71 166 2.71 160 2.71 161 2.71
 160  0.750  0.500  0.107- 132 2.64 170 2.64 172 2.64 146 2.65 108 2.65 148 2.65 117 2.71 158 2.71
                           161 2.71 120 2.71 159 2.71 119 2.71
 161  0.833  0.583  0.107- 174 2.64 173 2.64 172 2.64 149 2.65 148 2.65 150 2.65 120 2.71  61 2.71
                           162 2.71 160 2.71 166 2.71 159 2.71
 162  0.917  0.667  0.107- 174 2.64  73 2.64 179 2.64 150 2.65 155 2.65  49 2.65 167 2.71  67 2.71
                           166 2.71  62 2.71 161 2.71  61 2.71
 163  0.500  0.750  0.107- 175 2.64  83 2.64 171 2.64 151 2.65 147 2.65  59 2.65  66 2.71 164 2.71
                           159 2.71  71 2.71  72 2.71 158 2.71
 164  0.583  0.833  0.107- 177 2.64 175 2.64 176 2.64 151 2.65 152 2.65 153 2.65 159 2.71 163 2.71
                            72 2.71 166 2.71 109 2.71 165 2.71
 165  0.667  0.917  0.107- 122 2.64 177 2.64 178 2.64  98 2.65 153 2.65 154 2.65 110 2.71 109 2.71
                           167 2.71 112 2.71 166 2.71 164 2.71
 166  0.750  0.750  0.107- 174 2.64 178 2.64 176 2.64 154 2.65 150 2.65 152 2.65 167 2.71 162 2.71
                           159 2.71 164 2.71 161 2.71 165 2.71
 167  0.833  0.833  0.107- 178 2.64 179 2.64 180 2.64 154 2.65 155 2.65 156 2.65 162 2.71  67 2.71
                           166 2.71 165 2.71 112 2.71 168 2.71
 168  0.917  0.917  0.107- 125 2.64  79 2.64 180 2.64 101 2.65  55 2.65 156 2.65 113 2.71 112 2.71
                            13 2.71  68 2.71  67 2.71 167 2.71
 169  0.500  0.583  0.213- 181 2.59 182 2.59  90 2.59 158 2.64  66 2.64 157 2.64  83 2.71 170 2.71
                           171 2.71  78 2.71 129 2.71  77 2.72
 170  0.667  0.500  0.214- 141 2.59 182 2.59 184 2.59 158 2.64 160 2.64 117 2.64 169 2.71 129 2.71
                           171 2.71 172 2.71 132 2.71 130 2.71
 171  0.583  0.667  0.214- 182 2.59 187 2.59 183 2.59 163 2.64 159 2.64 158 2.64  83 2.71 169 2.71
                           175 2.71 170 2.71 172 2.71 176 2.71
 172  0.750  0.583  0.214- 185 2.59 184 2.59 183 2.59 159 2.64 160 2.64 161 2.64 173 2.71 132 2.71
                           170 2.71 174 2.71 171 2.71 176 2.71
 173  0.917  0.500  0.214- 185 2.58 144 2.59  85 2.59 161 2.64 120 2.64  61 2.64 174 2.71 172 2.71
                           132 2.71  31 2.71  73 2.72  33 2.72
 174  0.833  0.667  0.213- 185 2.59 190 2.59 186 2.59 161 2.64 162 2.64 166 2.64 173 2.71 172 2.71
                            73 2.71 178 2.71 179 2.71 176 2.71
 175  0.500  0.833  0.214- 188 2.59  96 2.59 187 2.59 163 2.64  72 2.64 164 2.64 171 2.71  83 2.71
                           177 2.71 176 2.71  84 2.71  29 2.71
 176  0.667  0.750  0.214- 188 2.59 190 2.59 183 2.59 164 2.64 166 2.64 159 2.64 177 2.71 178 2.71
                           175 2.71 171 2.71 174 2.71 172 2.71
 177  0.583  0.917  0.214- 188 2.58 133 2.59 189 2.59 164 2.64 165 2.64 109 2.64 176 2.71 175 2.71
                           178 2.71 122 2.71 121 2.71  29 2.71
 178  0.750  0.833  0.214- 190 2.58 189 2.59 191 2.59 167 2.64 166 2.64 165 2.64 176 2.71 177 2.71
                           180 2.71 122 2.71 179 2.71 174 2.71
 179  0.917  0.750  0.214- 186 2.59 191 2.59  91 2.59  67 2.64 162 2.64 167 2.64  75 2.71  73 2.71
                            79 2.71 178 2.71 174 2.71 180 2.71
 180  0.833  0.917  0.214- 192 2.59 191 2.59 136 2.59 112 2.64 168 2.64 167 2.64 125 2.71 124 2.71
                           122 2.71 178 2.71  79 2.71 179 2.71
 181  0.500  0.500  0.316- 129 2.58 169 2.59  77 2.59 141 2.71 140 2.71 182 2.71  48 2.71  90 2.72
                            89 2.72
 182  0.583  0.583  0.317- 170 2.59 171 2.59 169 2.59 141 2.71 181 2.71 184 2.71  90 2.72 183 2.72
                           187 2.72
 183  0.667  0.667  0.317- 172 2.59 176 2.59 171 2.59 185 2.71 184 2.71 190 2.72 182 2.72 188 2.72
                           187 2.73
 184  0.750  0.500  0.317- 132 2.58 172 2.59 170 2.59 143 2.71 141 2.71 144 2.71 182 2.71 183 2.71
                           185 2.72
 185  0.834  0.583  0.316- 173 2.58 172 2.59 174 2.59  85 2.71 186 2.71 144 2.71 183 2.71 184 2.72
                           190 2.72
 186  0.917  0.667  0.317- 179 2.59  73 2.59 174 2.59 190 2.71 185 2.71  86 2.71  85 2.71 191 2.71
                            91 2.71
 187  0.500  0.750  0.317-  83 2.58 175 2.59 171 2.59  95 2.70  96 2.71  90 2.71 188 2.72 182 2.72
                           183 2.73
 188  0.583  0.834  0.316- 177 2.58 175 2.59 176 2.59 133 2.70 189 2.71  96 2.71 187 2.72 190 2.72
                           183 2.72
 189  0.667  0.917  0.316- 178 2.59 177 2.59 122 2.59 188 2.71 190 2.71 134 2.71 191 2.71 136 2.71
                           133 2.71
 190  0.750  0.750  0.316- 178 2.58 174 2.59 176 2.59 191 2.70 186 2.71 189 2.71 183 2.72 185 2.72
                           188 2.72
 191  0.833  0.833  0.317- 180 2.59 178 2.59 179 2.59 190 2.70  91 2.71 136 2.71 186 2.71 189 2.71
                           192 2.71
 192  0.917  0.917  0.316- 180 2.59 125 2.59  79 2.59 137 2.71 136 2.71  92 2.71  91 2.71  37 2.71
                           191 2.71
 193  0.411  0.190  0.551- 225 1.10
 194  0.384  0.188  0.467- 225 1.11
 195  0.402  0.304  0.437- 226 1.12
 196  0.493  0.224  0.473- 226 1.11
 197  0.366  0.383  0.540- 228 1.10
 198  0.460  0.388  0.451- 229 1.11
 199  0.545  0.321  0.500- 229 1.11
 200  0.490  0.428  0.592- 231 1.10
 201  0.521  0.484  0.457- 232 1.11
 202  0.599  0.409  0.509- 232 1.11
 203  0.484  0.589  0.548- 234 1.10
 204  0.586  0.562  0.454- 235 1.11
 205  0.666  0.501  0.511- 235 1.11
 206  0.614  0.628  0.586- 237 1.11
 207  0.733  0.585  0.508- 238 1.10
 208  0.673  0.695  0.513- 238 1.10
 209  0.664  0.643  0.442- 238 1.11
 210  0.285  0.331  0.566- 227 1.10
 211  0.256  0.260  0.536- 227 1.10
 212  0.260  0.332  0.480- 227 1.10
 213  0.528  0.243  0.597- 230 1.10
 214  0.427  0.271  0.625- 230 1.10
 215  0.466  0.339  0.637- 230 1.10
 216  0.371  0.538  0.483- 233 1.10
 217  0.382  0.572  0.563- 233 1.10
 218  0.342  0.504  0.556- 233 1.10
 219  0.636  0.450  0.618- 236 1.10
 220  0.533  0.496  0.648- 236 1.10
 221  0.582  0.555  0.645- 236 1.10
 222  0.507  0.716  0.463- 239 1.11
 223  0.521  0.765  0.534- 239 1.10
 224  0.469  0.708  0.543- 239 1.10
 225  0.381  0.230  0.507- 193 1.10 194 1.11 226 1.53 227 1.53
 226  0.429  0.271  0.485- 196 1.11 195 1.12 225 1.53 228 1.53
 227  0.291  0.291  0.523- 211 1.10 210 1.10 212 1.10 225 1.53
 228  0.430  0.334  0.534- 197 1.10 230 1.53 226 1.53 229 1.53
 229  0.480  0.370  0.503- 199 1.11 198 1.11 231 1.53 228 1.53
 230  0.465  0.295  0.602- 215 1.10 214 1.10 213 1.10 228 1.53
 231  0.474  0.445  0.539- 200 1.10 233 1.53 229 1.53 232 1.54
 232  0.538  0.465  0.510- 202 1.11 201 1.11 234 1.54 231 1.54
 233  0.387  0.519  0.535- 218 1.10 217 1.10 216 1.10 231 1.53
 234  0.545  0.533  0.546- 203 1.10 236 1.53 235 1.53 232 1.54
 235  0.603  0.554  0.508- 205 1.11 204 1.11 234 1.53 237 1.54
 236  0.576  0.507  0.618- 220 1.10 221 1.10 219 1.10 234 1.53
 237  0.603  0.632  0.531- 206 1.11 238 1.53 239 1.53 235 1.54
 238  0.672  0.639  0.497- 207 1.10 208 1.10 209 1.11 237 1.53
 239  0.520  0.710  0.518- 224 1.10 223 1.10 222 1.11 237 1.53
 
  LATTYP: Found a hexagonal cell.
 ALAT       =    18.7899500611
 C/A-ratio  =     1.0643987842
  
  Lattice vectors:
  
 A1 = (   9.3949750305, -16.2725740888,   0.0000000000)
 A2 = ( -18.7899500611,   0.0000000000,   0.0000000000)
 A3 = (   0.0000000000,   0.0000000000, -20.0000000000)


Analysis of symmetry for initial positions (statically):
=====================================================================
 Subroutine PRICEL returns:
 Original cell was already a primitive cell.
 

 Routine SETGRP: Setting up the symmetry group for a 
 hexagonal supercell.


 Subroutine GETGRP returns: Found  1 space group operations
 (whereof  1 operations were pure point group operations)
 out of a pool of 24 trial point group operations.


The static configuration has the point symmetry C_1 .


Analysis of symmetry for dynamics (positions and initial velocities):
=====================================================================
 Subroutine PRICEL returns:
 Original cell was already a primitive cell.
 

 Routine SETGRP: Setting up the symmetry group for a 
 hexagonal supercell.


 Subroutine GETGRP returns: Found  1 space group operations
 (whereof  1 operations were pure point group operations)
 out of a pool of 24 trial point group operations.


The dynamic configuration has the point symmetry C_1 .


Analysis of constrained symmetry for selective dynamics:
=====================================================================
 Subroutine PRICEL returns:
 Original cell was already a primitive cell.
 

 Routine SETGRP: Setting up the symmetry group for a 
 hexagonal supercell.


 Subroutine GETGRP returns: Found  1 space group operations
 (whereof  1 operations were pure point group operations)
 out of a pool of 24 trial point group operations.


The constrained configuration has the point symmetry C_1 .


 Subroutine INISYM returns: Found  1 space group operations
 (whereof  1 operations are pure point group operations),
 and found     1 'primitive' translations

 
 
 KPOINTS: K-POINTS                                

Automatic generation of k-mesh.
Space group operators:
 irot       det(A)        alpha          n_x          n_y          n_z        tau_x        tau_y        tau_z
    1     1.000000     0.000000     1.000000     0.000000     0.000000     0.000000     0.000000     0.000000
 
 Subroutine IBZKPT returns following result:
 ===========================================
 
 Found      5 irreducible k-points:
 
 Following reciprocal coordinates:
            Coordinates               Weight
  0.000000  0.000000  0.000000      1.000000
  0.333333  0.000000  0.000000      2.000000
  0.000000  0.333333  0.000000      2.000000
  0.333333  0.333333  0.000000      2.000000
 -0.333333  0.333333  0.000000      2.000000
 
 Following cartesian coordinates:
            Coordinates               Weight
  0.000000  0.000000  0.000000      1.000000
  0.017740 -0.010242  0.000000      2.000000
  0.000000  0.020484  0.000000      2.000000
  0.017740  0.010242  0.000000      2.000000
 -0.017740  0.030727  0.000000      2.000000
 


--------------------------------------------------------------------------------------------------------




 Dimension of arrays:
   k-points           NKPTS =      5   k-points in BZ     NKDIM =      5   number of bands    NBANDS=   1008
   number of dos      NEDOS =    301   number of ions     NIONS =    239
   non local maximal  LDIM  =      6   non local SUM 2l+1 LMDIM =     18
   total plane-waves  NPLWV = ******
   max r-space proj   IRMAX =   2490   max aug-charges    IRDMAX=  11670
   dimension x,y,z NGX =    98 NGY =   98 NGZ =  108
   dimension x,y,z NGXF=   196 NGYF=  196 NGZF=  216
   support grid    NGXF=   196 NGYF=  196 NGZF=  216
   ions per type =             192  32  15
   NGX,Y,Z   is equivalent  to a cutoff of   8.67,  8.67,  8.98 a.u.
   NGXF,Y,Z  is equivalent  to a cutoff of  17.34, 17.34, 17.95 a.u.

 SYSTEM =  x                                       
 POSCAR =  Ru  H  C                                

 Startparameter for this run:
   NWRITE =      0    write-flag & timer
   PREC   = normal    normal or accurate (medium, high low for compatibility)
   ISTART =      0    job   : 0-new  1-cont  2-samecut
   ICHARG =      2    charge: 1-file 2-atom 10-const
   ISPIN  =      1    spin polarized calculation?
   LNONCOLLINEAR =      F non collinear calculations
   LSORBIT =      F    spin-orbit coupling
   INIWAV =      1    electr: 0-lowe 1-rand  2-diag
   LASPH  =      F    aspherical Exc in radial PAW
   METAGGA=      F    non-selfconsistent MetaGGA calc.

 Electronic Relaxation 1
   ENCUT  =  450.0 eV  33.07 Ry    5.75 a.u.  32.50 32.50 34.59*2*pi/ulx,y,z
   ENINI  =  450.0     initial cutoff
   ENAUG  =  644.9 eV  augmentation charge cutoff
   NELM   =     50;   NELMIN=  5; NELMDL= -7     # of ELM steps 
   EDIFF  = 0.1E-04   stopping-criterion for ELM
   LREAL  =      T    real-space projection
   NLSPLINE    = F    spline interpolate recip. space projectors
   LCOMPAT=      F    compatible to vasp.4.4
   GGA_COMPAT  = T    GGA compatible to vasp.4.4-vasp.4.6
   LMAXPAW     = -100 max onsite density
   LMAXMIX     =    2 max onsite mixed and CHGCAR
   VOSKOWN=      0    Vosko Wilk Nusair interpolation
   ROPT   =   -0.00050  -0.00050  -0.00050
 Ionic relaxation
   EDIFFG = -.2E-01   stopping-criterion for IOM
   NSW    =    400    number of steps for IOM
   NBLOCK =      1;   KBLOCK =    400    inner block; outer block 
   IBRION =      2    ionic relax: 0-MD 1-quasi-New 2-CG
   NFREE  =      2    steps in history (QN), initial steepest desc. (CG)
   ISIF   =      2    stress and relaxation
   IWAVPR =     11    prediction:  0-non 1-charg 2-wave 3-comb
   ISYM   =      2    0-nonsym 1-usesym 2-fastsym
   LCORR  =      T    Harris-Foulkes like correction to forces

   POTIM  = 0.1500    time-step for ionic-motion
   TEIN   =    0.0    initial temperature
   TEBEG  =    0.0;   TEEND  =   0.0 temperature during run
   SMASS  =  -3.00    Nose mass-parameter (am)
   estimated Nose-frequenzy (Omega)   =  0.10E-29 period in steps =****** mass=  -0.807E-26a.u.
   SCALEE = 1.0000    scale energy and forces
   NPACO  =    256;   APACO  = 16.0  distance and # of slots for P.C.
   PSTRESS=    0.0 pullay stress

  Mass of Ions in am
   POMASS = 101.07  1.00 12.01
  Ionic Valenz
   ZVAL   =   8.00  1.00  4.00
  Atomic Wigner-Seitz radii
   RWIGS  =  -1.00 -1.00 -1.00
  virtual crystal weights 
   VCA    =   1.00  1.00  1.00
   NELECT =    1628.0000    total number of electrons
   NUPDOWN=      -1.0000    fix difference up-down

 DOS related values:
   EMIN   =  10.00;   EMAX   =-10.00  energy-range for DOS
   EFERMI =   0.00
   ISMEAR =     0;   SIGMA  =   0.03  broadening in eV -4-tet -1-fermi 0-gaus

 Electronic relaxation 2 (details)
   IALGO  =     68    algorithm
   LDIAG  =      T    sub-space diagonalisation (order eigenvalues)
   LSUBROT=      F    optimize rotation matrix (better conditioning)
   TURBO    =      0    0=normal 1=particle mesh
   IRESTART =      0    0=no restart 2=restart with 2 vectors
   NREBOOT  =      0    no. of reboots
   NMIN     =      0    reboot dimension
   EREF     =   0.00    reference energy to select bands
   IMIX   =      4    mixing-type and parameters
     AMIX     =   0.40;   BMIX     =  1.00
     AMIX_MAG =   1.60;   BMIX_MAG =  1.00
     AMIN     =   0.10
     WC   =   100.;   INIMIX=   1;  MIXPRE=   1;  MAXMIX= -45

 Intra band minimization:
   WEIMIN = 0.0010     energy-eigenvalue tresh-hold
   EBREAK =  0.25E-08  absolut break condition
   DEPER  =   0.30     relativ break condition  

   TIME   =   0.40     timestep for ELM

  volume/ion in A,a.u.               =      25.59       172.67
  Fermi-wavevector in a.u.,A,eV,Ry     =   1.053147  1.990159 15.090475  1.109119
  Thomas-Fermi vector in A             =   2.188257
 
 Write flags
   LWAVE        =      F    write WAVECAR
   LDOWNSAMPLE  =      F    k-point downsampling of WAVECAR
   LCHARG       =      F    write CHGCAR
   LVTOT        =      F    write LOCPOT, total local potential
   LVHAR        =      F    write LOCPOT, Hartree potential only
   LELF         =      F    write electronic localiz. function (ELF)
   LORBIT       =      0    0 simple, 1 ext, 2 COOP (PROOUT), +10 PAW based schemes


 Dipole corrections
   LMONO  =      F    monopole corrections only (constant potential shift)
   LDIPOL =      T    correct potential (dipole corrections)
   IDIPOL =      3    1-x, 2-y, 3-z, 4-all directions 
   EPSILON=  1.0000000 bulk dielectric constant

 Exchange correlation treatment:
   GGA     =    PE    GGA type
   LEXCH   =     8    internal setting for exchange type
   VOSKOWN=      0    Vosko Wilk Nusair interpolation
   LHFCALC =     F    Hartree Fock is set to
   LHFONE  =     F    Hartree Fock one center treatment
   AEXX    =    0.0000 exact exchange contribution

 Linear response parameters
   LEPSILON=     F    determine dielectric tensor
   LRPA    =     F    only Hartree local field effects (RPA)
   LNABLA  =     F    use nabla operator in PAW spheres
   LVEL    =     F    velocity operator in full k-point grid
   LINTERFAST=   F  fast interpolation
   KINTER  =     0    interpolate to denser k-point grid
   CSHIFT  =0.1000    complex shift for real part using Kramers Kronig
   OMEGAMAX=  -1.0    maximum frequency
   DEG_THRESHOLD= 0.2000000E-02 threshold for treating states as degnerate
   RTIME   =   -0.100 relaxation time in fs
  (WPLASMAI=    0.000 imaginary part of plasma frequency in eV, 0.658/RTIME)
   DFIELD  = 0.0000000 0.0000000 0.0000000 field for delta impulse in time
 
 Orbital magnetization related:
   ORBITALMAG=     F  switch on orbital magnetization
   LCHIMAG   =     F  perturbation theory with respect to B field
   DQ        =  0.001000  dq finite difference perturbation B field
   LLRAUG    =     F  two centre corrections for induced B field



--------------------------------------------------------------------------------------------------------


 conjugate gradient relaxation of ions
   using selective dynamics as specified on POSCAR
   WARNING: If single coordinates had been selected the selection of coordinates
            is made according to the corresponding   d i r e c t   coordinates!
            Don't support selection of single cartesian coordinates -- sorry ...
  !
 charge density and potential will be updated during run
 non-spin polarized calculation
 RMM-DIIS sequential band-by-band and
  variant of blocked Davidson during initial phase
 perform sub-space diagonalisation
    before iterative eigenvector-optimisation
 modified Broyden-mixing scheme, WC =      100.0
 initial mixing is a Kerker type mixing with AMIX =  0.4000 and BMIX =      1.0000
 Hartree-type preconditioning will be used
 using additional bands          194
 real space projection scheme for non local part
 use partial core corrections
 calculate Harris-corrections to forces 
   (improved forces if not selfconsistent)
 use gradient corrections 
 use of overlap-Matrix (Vanderbilt PP)
 Gauss-broadening in eV      SIGMA  =   0.03


--------------------------------------------------------------------------------------------------------


  energy-cutoff  :      450.00
  volume of cell :     6115.22
      direct lattice vectors                 reciprocal lattice vectors
    18.789950061  0.000000000  0.000000000     0.053219939 -0.030726546  0.000000000
     9.394975031 16.272574089  0.000000000     0.000000000  0.061453092  0.000000000
     0.000000000  0.000000000 20.000000000     0.000000000  0.000000000  0.050000000

  length of vectors
    18.789950061 18.789950061 20.000000000     0.061453092  0.061453092  0.050000000


 
 k-points in units of 2pi/SCALE and weight: K-POINTS                                
   0.00000000  0.00000000  0.00000000       0.111
   0.01773998 -0.01024218  0.00000000       0.222
   0.00000000  0.02048436  0.00000000       0.222
   0.01773998  0.01024218  0.00000000       0.222
  -0.01773998  0.03072655  0.00000000       0.222
 
 k-points in reciprocal lattice and weights: K-POINTS                                
   0.00000000  0.00000000  0.00000000       0.111
   0.33333333  0.00000000  0.00000000       0.222
   0.00000000  0.33333333  0.00000000       0.222
   0.33333333  0.33333333  0.00000000       0.222
  -0.33333333  0.33333333  0.00000000       0.222
 
 position of ions in fractional coordinates (direct lattice) 
   0.00000000  0.08333333  0.00000000
   0.16666667  0.00000000  0.00000000
   0.08333333  0.16666667  0.00000000
   0.25000000  0.08333333  0.00000000
   0.41666667  0.00000000  0.00000000
   0.33333333  0.16666667  0.00000000
   1.00000000  0.33333333  0.00000000
   0.16666667  0.25000000  0.00000000
   0.08333333  0.41666667  0.00000000
   0.25000000  0.33333333  0.00000000
   0.41666667  0.25000000  0.00000000
   0.33333333  0.41666667  0.00000000
   0.00000000  0.00000000  0.10719781
   0.08333333  0.08333333  0.10719781
   0.16666667  0.16666667  0.10719781
   0.25000000  0.00000000  0.10719781
   0.33333333  0.08333333  0.10719781
   0.41666667  0.16666667  0.10719781
   1.00000000  0.25000000  0.10719781
   0.08333333  0.33333333  0.10719781
   0.16666667  0.41666667  0.10719781
   0.25000000  0.25000000  0.10719781
   0.33333333  0.33333333  0.10719781
   0.41666667  0.41666667  0.10719781
   0.00002218  0.08338824  0.21350040
   0.16665358  0.99998106  0.21353206
   0.08330698  0.16669383  0.21361281
   0.24997603  0.08332091  0.21357804
   0.41657384  0.00004417  0.21346445
   0.33334572  0.16659657  0.21349588
   0.00001056  0.33330568  0.21349773
   0.16664905  0.25001679  0.21356309
   0.08344189  0.41658253  0.21348786
   0.25000069  0.33330200  0.21351201
   0.41665018  0.24996653  0.21354085
   0.33335351  0.41660184  0.21348723
   0.00005860  0.99998226  0.31640112
   0.08335475  0.08333184  0.31649459
   0.16666686  0.16664001  0.31656909
   0.24994261  0.00003711  0.31664140
   0.33330115  0.08334505  0.31650194
   0.41666333  0.16666702  0.31649530
   0.00000265  0.24996760  0.31662881
   0.08334278  0.33329427  0.31649665
   0.16654928  0.41651283  0.31641828
   0.24998036  0.24996067  0.31661472
   0.33343503  0.33258963  0.31632547
   0.41729826  0.41608557  0.31646873
   0.00000000  0.58333333  0.00000000
   0.16666667  0.50000000  0.00000000
   0.08333333  0.66666667  0.00000000
   0.25000000  0.58333333  0.00000000
   0.41666667  0.50000000  0.00000000
   0.33333333  0.66666667  0.00000000
   1.00000000  0.83333333  0.00000000
   0.16666667  0.75000000  0.00000000
   0.08333333  0.91666667  0.00000000
   0.25000000  0.83333333  0.00000000
   0.41666667  0.75000000  0.00000000
   0.33333333  0.91666667  0.00000000
   0.00000000  0.50000000  0.10719781
   0.08333333  0.58333333  0.10719781
   0.16666667  0.66666667  0.10719781
   0.25000000  0.50000000  0.10719781
   0.33333333  0.58333333  0.10719781
   0.41666667  0.66666667  0.10719781
   1.00000000  0.75000000  0.10719781
   0.08333333  0.83333333  0.10719781
   0.16666667  0.91666667  0.10719781
   0.25000000  0.75000000  0.10719781
   0.33333333  0.83333333  0.10719781
   0.41666667  0.91666667  0.10719781
   0.00005735  0.58338025  0.21351425
   0.16666932  0.50000855  0.21372128
   0.08329279  0.66668848  0.21360065
   0.25006177  0.58328159  0.21367552
   0.41657530  0.49998263  0.21349336
   0.33343888  0.66650700  0.21368780
   0.99999179  0.83336321  0.21354455
   0.16666936  0.74998880  0.21359541
   0.08340171  0.91656883  0.21350906
   0.24998536  0.83328920  0.21357727
   0.41677813  0.74992142  0.21371551
   0.33328199  0.91671704  0.21357473
   0.00007018  0.50001462  0.31636836
   0.08321341  0.58343404  0.31657448
   0.16659675  0.66675462  0.31654413
   0.24964845  0.50006558  0.31685773
   0.33320918  0.58366787  0.31663725
   0.41661995  0.66676487  0.31661624
   0.99999092  0.75005621  0.31666573
   0.08331431  0.83333481  0.31650566
   0.16659143  0.91674257  0.31649153
   0.24994172  0.75003395  0.31667570
   0.33328833  0.83336584  0.31654815
   0.41662040  0.91674746  0.31650721
   0.50000000  0.08333333  0.00000000
   0.66666667  0.00000000  0.00000000
   0.58333333  0.16666667  0.00000000
   0.75000000  0.08333333  0.00000000
   0.91666667  0.00000000  0.00000000
   0.83333333  0.16666667  0.00000000
   0.50000000  0.33333333  0.00000000
   0.66666667  0.25000000  0.00000000
   0.58333333  0.41666667  0.00000000
   0.75000000  0.33333333  0.00000000
   0.91666667  0.25000000  0.00000000
   0.83333333  0.41666667  0.00000000
   0.50000000  0.00000000  0.10719781
   0.58333333  0.08333333  0.10719781
   0.66666667  0.16666667  0.10719781
   0.75000000  0.00000000  0.10719781
   0.83333333  0.08333333  0.10719781
   0.91666667  0.16666667  0.10719781
   0.50000000  0.25000000  0.10719781
   0.58333333  0.33333333  0.10719781
   0.66666667  0.41666667  0.10719781
   0.75000000  0.25000000  0.10719781
   0.83333333  0.33333333  0.10719781
   0.91666667  0.41666667  0.10719781
   0.50007280  0.08336471  0.21344853
   0.66665342  0.00000545  0.21348304
   0.58331615  0.16670130  0.21356275
   0.75003393  0.08333315  0.21359274
   0.91660056  0.00001865  0.21351600
   0.83341146  0.16662530  0.21351240
   0.49996344  0.33341827  0.21367793
   0.66669625  0.25001352  0.21358737
   0.58342852  0.41661056  0.21353140
   0.74998544  0.33330564  0.21358558
   0.91673231  0.24999117  0.21359788
   0.83329399  0.41669708  0.21361404
   0.49993776  0.99997088  0.31636533
   0.58331981  0.08330411  0.31645580
   0.66666835  0.16667898  0.31656202
   0.75003593  0.99999850  0.31664448
   0.83332649  0.08331016  0.31650078
   0.91672620  0.16661837  0.31648302
   0.50010459  0.24984778  0.31652928
   0.58338609  0.33327068  0.31651161
   0.66669629  0.41664273  0.31649466
   0.75010467  0.24992392  0.31662432
   0.83341715  0.33327170  0.31659559
   0.91668410  0.41665434  0.31649752
   0.50000000  0.58333333  0.00000000
   0.66666667  0.50000000  0.00000000
   0.58333333  0.66666667  0.00000000
   0.75000000  0.58333333  0.00000000
   0.91666667  0.50000000  0.00000000
   0.83333333  0.66666667  0.00000000
   0.50000000  0.83333333  0.00000000
   0.66666667  0.75000000  0.00000000
   0.58333333  0.91666667  0.00000000
   0.75000000  0.83333333  0.00000000
   0.91666667  0.75000000  0.00000000
   0.83333333  0.91666667  0.00000000
   0.50000000  0.50000000  0.10719781
   0.58333333  0.58333333  0.10719781
   0.66666667  0.66666667  0.10719781
   0.75000000  0.50000000  0.10719781
   0.83333333  0.58333333  0.10719781
   0.91666667  0.66666667  0.10719781
   0.50000000  0.75000000  0.10719781
   0.58333333  0.83333333  0.10719781
   0.66666667  0.91666667  0.10719781
   0.75000000  0.75000000  0.10719781
   0.83333333  0.83333333  0.10719781
   0.91666667  0.91666667  0.10719781
   0.50006822  0.58341901  0.21349273
   0.66658783  0.50008112  0.21357544
   0.58329407  0.66673467  0.21370811
   0.74998523  0.58333749  0.21367159
   0.91656622  0.50002308  0.21351754
   0.83337669  0.66660214  0.21339560
   0.49998137  0.83332641  0.21350388
   0.66665028  0.75010117  0.21359281
   0.58337454  0.91658078  0.21354381
   0.75002381  0.83331252  0.21356884
   0.91671780  0.74998561  0.21358453
   0.83328848  0.91672865  0.21359283
   0.50035744  0.49973204  0.31635390
   0.58346828  0.58322927  0.31667486
   0.66701426  0.66662429  0.31687357
   0.75010566  0.49979529  0.31657845
   0.83363453  0.58320866  0.31639930
   0.91664610  0.66667028  0.31650101
   0.49951624  0.75040628  0.31668616
   0.58314054  0.83389210  0.31636615
   0.66666600  0.91667570  0.31649977
   0.75035615  0.75016664  0.31641442
   0.83334528  0.83334352  0.31653683
   0.91666696  0.91670566  0.31649835
   0.41088523  0.19011526  0.55106669
   0.38352302  0.18827695  0.46697914
   0.40239337  0.30386778  0.43707724
   0.49316173  0.22366222  0.47310154
   0.36638307  0.38334189  0.54049587
   0.45963186  0.38815384  0.45050178
   0.54516174  0.32083860  0.49996322
   0.49036830  0.42785819  0.59212709
   0.52087594  0.48408499  0.45692568
   0.59862354  0.40914441  0.50868963
   0.48401528  0.58856406  0.54804838
   0.58569612  0.56215759  0.45413221
   0.66613879  0.50123772  0.51059264
   0.61429265  0.62763143  0.58558114
   0.73288568  0.58484311  0.50803319
   0.67297305  0.69458709  0.51279396
   0.66372612  0.64260097  0.44224982
   0.28543955  0.33058838  0.56613676
   0.25645426  0.25964807  0.53584898
   0.26047818  0.33153083  0.48019654
   0.52787202  0.24265921  0.59681595
   0.42715226  0.27108548  0.62497631
   0.46597762  0.33910598  0.63692053
   0.37086684  0.53763801  0.48277374
   0.38186637  0.57163809  0.56329528
   0.34166618  0.50432446  0.55587076
   0.63598928  0.45047799  0.61825238
   0.53295619  0.49551654  0.64764776
   0.58222102  0.55499070  0.64471266
   0.50714896  0.71575996  0.46323206
   0.52069424  0.76522170  0.53402259
   0.46888902  0.70818530  0.54279933
   0.38066518  0.22975228  0.50742661
   0.42919367  0.27098848  0.48513517
   0.29079287  0.29115634  0.52349548
   0.43040388  0.33350740  0.53371770
   0.48006494  0.36998743  0.50306535
   0.46460784  0.29453823  0.60208209
   0.47449936  0.44467898  0.53911137
   0.53751932  0.46541977  0.50988688
   0.38731737  0.51871928  0.53540041
   0.54535561  0.53299340  0.54649224
   0.60291837  0.55422743  0.50794499
   0.57555274  0.50727524  0.61839954
   0.60285131  0.63219220  0.53111419
   0.67236181  0.63865171  0.49737730
   0.52014589  0.70961068  0.51751783
 
 position of ions in cartesian coordinates  (Angst):
   0.78291459  1.35604784  0.00000000
   3.13165834  0.00000000  0.00000000
   3.13165834  2.71209568  0.00000000
   5.48040210  1.35604784  0.00000000
   7.82914586  0.00000000  0.00000000
   7.82914586  2.71209568  0.00000000
  21.92160840  5.42419136  0.00000000
   5.48040210  4.06814352  0.00000000
   5.48040210  6.78023920  0.00000000
   7.82914586  5.42419136  0.00000000
  10.17788962  4.06814352  0.00000000
  10.17788962  6.78023920  0.00000000
   0.00000000  0.00000000  2.14395612
   2.34874376  1.35604784  2.14395612
   4.69748752  2.71209568  2.14395612
   4.69748752  0.00000000  2.14395612
   7.04623127  1.35604784  2.14395612
   9.39497503  2.71209568  2.14395612
  21.13869382  4.06814352  2.14395612
   4.69748752  5.42419136  2.14395612
   7.04623127  6.78023920  2.14395612
   7.04623127  4.06814352  2.14395612
   9.39497503  5.42419136  2.14395612
  11.74371879  6.78023920  2.14395612
   0.78384722  1.35694123  4.27000800
  12.52620948 16.27226582  4.27064118
   3.13141838  2.71253769  4.27225618
   5.47983502  1.35584565  4.27156077
   7.82781664  0.00071877  4.26928896
   7.82872018  2.71095511  4.26991756
   3.13159694  5.42374131  4.26995458
   5.48022880  4.06841668  4.27126184
   5.48165133  6.77887010  4.26975726
   7.82886453  5.42368155  4.27024017
  10.17726544  4.06759888  4.27081704
  10.17765965  6.77918425  4.26974465
   9.39590940 16.27228538  6.32802233
   2.34913220  1.35602348  6.32989187
   4.69724062  2.71166186  6.33138188
   4.69675791  0.00060393  6.33282794
   7.04573668  1.35623850  6.33003888
   9.39491558  2.71210145  6.32990602
   2.34848924  4.06761630  6.33257620
   4.69729796  5.42355569  6.32993309
   7.04258020  6.77773585  6.32836560
   7.04549268  4.06750355  6.33229449
   9.38989895  5.41208947  6.32650947
  11.75012700  6.77078329  6.32937460
   5.48040210  9.49233489  0.00000000
   7.82914586  8.13628704  0.00000000
   7.82914586 10.84838273  0.00000000
  10.17788962  9.49233489  0.00000000
  12.52663337  8.13628704  0.00000000
  12.52663337 10.84838273  0.00000000
  26.61909592 13.56047841  0.00000000
  10.17788962 12.20443057  0.00000000
  10.17788962 14.91652625  0.00000000
  12.52663337 13.56047841  0.00000000
  14.87537713 12.20443057  0.00000000
  14.87537713 14.91652625  0.00000000
   4.69748752  8.13628704  2.14395612
   7.04623127  9.49233489  2.14395612
   9.39497503 10.84838273  2.14395612
   9.39497503  8.13628704  2.14395612
  11.74371879  9.49233489  2.14395612
  14.09246255 10.84838273  2.14395612
  25.83618133 12.20443057  2.14395612
   9.39497503 13.56047841  2.14395612
  11.74371879 14.91652625  2.14395612
  11.74371879 12.20443057  2.14395612
  14.09246255 13.56047841  2.14395612
  16.44120630 14.91652625  2.14395612
   5.48192052  9.49309834  4.27028498
   7.82927614  8.13642622  4.27442566
   7.82858898 10.84873768  4.27201303
  10.17856412  9.49149286  4.27351038
  12.52475348  8.13600440  4.26986727
  12.52711650 10.84578447  4.27375600
  26.61922227 13.56096458  4.27089109
  10.17783495 12.20424831  4.27190827
  10.17825529 14.91493415  4.27018128
  12.52594367 13.55976032  4.27154535
  14.87673325 12.20315186  4.27431026
  14.87488563 14.91734596  4.27149462
   4.69894347  8.13652495  6.32736710
   7.04492402  9.49397367  6.33148959
   9.39448766 10.84981399  6.33088263
   9.38898550  8.13735417  6.33715458
  11.74452901  9.49777874  6.33274510
  14.09250737 10.84998082  6.33232488
  25.83653872 12.20534522  6.33331460
   9.39463143 13.56050242  6.33011319
  11.74301824 14.91776138  6.32983064
  11.74294262 12.20498307  6.33351390
  14.09192228 13.56100740  6.33096304
  16.44109599 14.91784100  6.33014420
  10.17788962  1.35604784  0.00000000
  12.52663337  0.00000000  0.00000000
  12.52663337  2.71209568  0.00000000
  14.87537713  1.35604784  0.00000000
  17.22412089  0.00000000  0.00000000
  17.22412089  2.71209568  0.00000000
  12.52663337  5.42419136  0.00000000
  14.87537713  4.06814352  0.00000000
  14.87537713  6.78023920  0.00000000
  17.22412089  5.42419136  0.00000000
  19.57286465  4.06814352  0.00000000
  19.57286465  6.78023920  0.00000000
   9.39497503  0.00000000  2.14395612
  11.74371879  1.35604784  2.14395612
  14.09246255  2.71209568  2.14395612
  14.09246255  0.00000000  2.14395612
  16.44120630  1.35604784  2.14395612
  18.78995006  2.71209568  2.14395612
  11.74371879  4.06814352  2.14395612
  14.09246255  5.42419136  2.14395612
  16.44120630  6.78023920  2.14395612
  16.44120630  4.06814352  2.14395612
  18.78995006  5.42419136  2.14395612
  21.13869382  6.78023920  2.14395612
  10.17955234  1.35655850  4.26897067
  12.52643570  0.00008874  4.26966077
  12.52663585  2.71265933  4.27125505
  14.87601304  1.35604486  4.27185489
  17.22305393  0.00030350  4.27031994
  17.22520034  2.71142254  4.27024808
  12.52674436  5.42557356  4.27355863
  14.87606005  4.06836360  4.27174736
  14.87663851  6.77932617  4.27062797
  17.22358715  5.42374066  4.27171154
  19.57401503  4.06799979  4.27195756
  19.57241109  6.78073417  4.27228079
  18.78850693 16.27210018  6.32730652
  11.74319006  1.35557223  6.32911605
  14.09260980  2.71229611  6.33124040
  23.48809851 16.27254965  6.33288960
  16.44086003  1.35567067  6.33001562
  18.79061502  2.71130980  6.32966045
  11.74425395  4.06566645  6.33058565
  14.09286526  5.42317177  6.33023228
  16.44153812  6.77984970  6.32989311
  16.44245839  4.06690555  6.33248648
  18.79094598  5.42318847  6.33191188
  21.13890562  6.78003858  6.32995047
  14.87537713  9.49233489  0.00000000
  17.22412089  8.13628704  0.00000000
  17.22412089 10.84838273  0.00000000
  19.57286465  9.49233489  0.00000000
  21.92160840  8.13628704  0.00000000
  21.92160840 10.84838273  0.00000000
  17.22412089 13.56047841  0.00000000
  19.57286465 12.20443057  0.00000000
  19.57286465 14.91652625  0.00000000
  21.92160840 13.56047841  0.00000000
  24.27035216 12.20443057  0.00000000
  24.27035216 14.91652625  0.00000000
  14.09246255  8.13628704  2.14395612
  16.44120630  9.49233489  2.14395612
  18.78995006 10.84838273  2.14395612
  18.78995006  8.13628704  2.14395612
  21.13869382  9.49233489  2.14395612
  23.48743758 10.84838273  2.14395612
  16.44120630 12.20443057  2.14395612
  18.78995006 13.56047841  2.14395612
  21.13869382 14.91652625  2.14395612
  21.13869382 12.20443057  2.14395612
  23.48743758 13.56047841  2.14395612
  25.83618133 14.91652625  2.14395612
  14.87746394  9.49372903  4.26985470
  17.22340171  8.13760702  4.27150870
  17.22402199 10.84948939  4.27416217
  19.57262611  9.49240254  4.27343180
  21.91993779  8.13666257  4.27035089
  21.92181693 10.84733278  4.26791201
  17.22370570 13.56036576  4.27007760
  19.57350727 12.20607693  4.27185613
  19.57283194 14.91512867  4.27087615
  21.92186027 13.56013967  4.27137677
  24.27117787 12.20419645  4.27169063
  24.27009167 14.91753491  4.27185659
  14.09666141  8.13192667  6.32707806
  16.44276425  9.49064149  6.33349727
  18.79608310 10.84769309  6.33747131
  18.79001225  8.13295593  6.33156910
  21.14318201  9.49030611  6.32798601
  23.48708508 10.84844156  6.33002022
  16.43593350 12.21104184  6.33372319
  18.79157715 13.56957104  6.32732294
  21.13876613 14.91667319  6.32999549
  21.14695143 12.20714219  6.32828831
  23.48775772 13.56064413  6.33073667
  25.83655319 14.91716084  6.32996694
   9.50664114  3.09366462 11.02133389
   8.97523564  3.06375067  9.33958283
  10.41578157  4.94471093  8.74154473
  11.36778528  3.63955998  9.46203071
  10.48580710  6.23795925 10.80991749
  12.28315529  6.31626217  9.01003556
  13.25783244  5.22086984  9.99926441
  13.23371295  6.96235409 11.84254189
  14.33519920  7.87730880  9.13851364
  15.09200789  6.65783267 10.17379256
  14.62416751  9.57745221 10.96096755
  16.28665741  9.14775095  9.08264412
  17.22583053  8.15642792 10.21185290
  17.43910991 10.21317896 11.71162289
  19.26547178  9.51690281 10.16066375
  19.17075840 11.30271981 10.25587925
  18.50860071 10.45677185  8.84499634
   8.46926454  5.37952394 11.32273518
   7.25814993  4.22514250 10.71697968
   8.00909594  5.39486002  9.60393070
  12.19846607  3.94868992 11.93631890
  10.57301086  4.41125853 12.49952619
  11.94158846  5.51812725 12.73841052
  12.01966509  8.74875432  9.65547483
  12.54577556  9.30202325 11.26590562
  11.15800613  8.20665720 11.11741522
  16.18243621  7.33043644 12.36504755
  14.66958576  8.06332958 12.95295525
  16.15402757  9.03112729 12.89425316
  16.25385068 11.64725699  9.26464117
  16.97305746 12.45212684 10.68045176
  15.46378453 11.52399783 10.85598662
   9.31119666  3.73866096 10.14853213
  10.61045767  4.40968005  9.70270342
   8.19939002  4.73786312 10.46990965
  11.22056110  5.42702385 10.67435402
  12.49641888  6.02064792 10.06130708
  11.49713746  4.79289517 12.04164186
  13.09356716  7.23607170 10.78222741
  14.47256830  7.57357761 10.19773752
  12.15102875  8.44089798 10.70800828
  15.25466446  8.67317462 10.92984475
  16.53575886  9.01870695 10.15889989
  15.58044543  8.25467388 12.36799084
  17.26697589 10.28739433 10.62228376
  18.63376171 10.39250720  9.94754597
  16.44028993 11.54719234 10.35035662
 


--------------------------------------------------------------------------------------------------------


 k-point  1 :   0.0000 0.0000 0.0000  plane waves:  132693
 k-point  2 :   0.3333 0.0000 0.0000  plane waves:  132620
 k-point  3 :   0.0000 0.3333 0.0000  plane waves:  132620
 k-point  4 :   0.3333 0.3333 0.0000  plane waves:  132620
 k-point  5 :  -0.3333 0.3333 0.0000  plane waves:  132456

 maximum and minimum number of plane-waves per node :    132693   132456

 maximum number of plane-waves:    132693
 maximum index in each direction: 
   IXMAX=   32   IYMAX=   32   IZMAX=   34
   IXMIN=  -32   IYMIN=  -32   IZMIN=  -34


 serial   3D FFT for wavefunctions
 parallel 3D FFT for charge:
    minimum data exchange during FFTs selected (reduces bandwidth)


 total amount of memory used by VASP MPI-rank0   414513. kBytes
=======================================================================

   base      :      30000. kBytes
   nonlr-proj:      85147. kBytes
   fftplans  :      11107. kBytes
   grid      :      55284. kBytes
   one-center:       3716. kBytes
   wavefun   :     229259. kBytes
 
     INWAV:  cpu time    0.0000: real time    0.0003
 Broyden mixing: mesh for mixing (old mesh)
   NGX = 65   NGY = 65   NGZ = 69
  (NGX  =196   NGY  =196   NGZ  =216)
  gives a total of 291525 points

 initial charge density was supplied:
 charge density of overlapping atoms calculated
 number of electron    1628.0000000 magnetization 
 keeping initial charge density in first step


--------------------------------------------------------------------------------------------------------


 Maximum index for non-local projection operator         2383
 Maximum index for augmentation-charges         1071 (set IRDMAX)


--------------------------------------------------------------------------------------------------------


 First call to EWALD:  gamma=   0.097
 Maximum number of real-space cells 3x 3x 3
 Maximum number of reciprocal cells 3x 3x 3

    FEWALD:  cpu time    0.0119: real time    0.0119


--------------------------------------- Iteration      1(   1)  ---------------------------------------


    POTLOK:  cpu time    0.1811: real time    0.1891
    SETDIJ:  cpu time    0.0211: real time    0.0308
     EDDAV:  cpu time   74.1506: real time   74.2031
       DOS:  cpu time    0.0014: real time    0.0037
    --------------------------------------------
      LOOP:  cpu time   74.3541: real time   74.4267

 eigenvalue-minimisations  : 10080
 total energy-change (2. order) : 0.9599780E+04  (-0.6648510E+05)
 number of electron    1628.0000000 magnetization 
 augmentation part     1628.0000000 magnetization 

 DIPCOR: dipole corrections for dipol
 direction  3 min pos   157,
 dipolmoment           0.000000      0.000000     -1.006810 electrons x Angstroem
 Tr[quadrupol]   -101594.485072

 energy correction for charged system         0.000000 eV
 dipol+quadrupol energy correction           -0.015617 eV
 added-field ion interaction        -42.310880 eV  (added to PSCEN)


 Free energy of the ion-electron system (eV)
  ---------------------------------------------------
  alpha Z        PSCENC =      2991.96955218
  Ewald energy   TEWEN  =    263807.33353975
  -Hartree energ DENC   =   -360844.08704298
  -exchange      EXHF   =         0.00000000
  -V(xc)+E(xc)   XCENC  =     -5909.87053766
  PAW double counting   =     90527.62511052   -81179.02344425
  entropy T*S    EENTRO =        -0.04627963
  eigenvalues    EBANDS =     10262.09956803
  atomic energy  EATOM  =     89943.77999512
  Solvation  Ediel_sol  =         0.00000000
  ---------------------------------------------------
  free energy    TOTEN  =      9599.78046108 eV

  energy without entropy =     9599.82674071  energy(sigma->0) =     9599.80360089


--------------------------------------------------------------------------------------------------------




--------------------------------------- Iteration      1(   2)  ---------------------------------------


     EDDAV:  cpu time   78.1364: real time   78.1550
       DOS:  cpu time    0.0040: real time    0.0040
    --------------------------------------------
      LOOP:  cpu time   78.1405: real time   78.1590

 eigenvalue-minimisations  : 10704
 total energy-change (2. order) :-0.1070682E+05  (-0.1000668E+05)
 number of electron    1628.0000000 magnetization 
 augmentation part     1628.0000000 magnetization 

 DIPCOR: dipole corrections for dipol
 direction  3 min pos   157,
 dipolmoment           0.000000      0.000000     -1.006810 electrons x Angstroem
 Tr[quadrupol]   -101594.485072

 energy correction for charged system         0.000000 eV
 dipol+quadrupol energy correction           -0.015617 eV
 added-field ion interaction        -42.310880 eV  (added to PSCEN)


 Free energy of the ion-electron system (eV)
  ---------------------------------------------------
  alpha Z        PSCENC =      2991.96955218
  Ewald energy   TEWEN  =    263807.33353975
  -Hartree energ DENC   =   -360844.08704298
  -exchange      EXHF   =         0.00000000
  -V(xc)+E(xc)   XCENC  =     -5909.87053766
  PAW double counting   =     90527.62511052   -81179.02344425
  entropy T*S    EENTRO =        -0.09206054
  eigenvalues    EBANDS =      -444.67919009
  atomic energy  EATOM  =     89943.77999512
  Solvation  Ediel_sol  =         0.00000000
  ---------------------------------------------------
  free energy    TOTEN  =     -1107.04407795 eV

  energy without entropy =    -1106.95201741  energy(sigma->0) =    -1106.99804768


--------------------------------------------------------------------------------------------------------




--------------------------------------- Iteration      1(   3)  ---------------------------------------


     EDDAV:  cpu time  116.1476: real time  116.1891
       DOS:  cpu time    0.0033: real time    0.0033
    --------------------------------------------
      LOOP:  cpu time  116.1509: real time  116.1924

 eigenvalue-minimisations  : 17376
 total energy-change (2. order) :-0.9253618E+03  (-0.8783858E+03)
 number of electron    1628.0000000 magnetization 
 augmentation part     1628.0000000 magnetization 

 DIPCOR: dipole corrections for dipol
 direction  3 min pos   157,
 dipolmoment           0.000000      0.000000     -1.006810 electrons x Angstroem
 Tr[quadrupol]   -101594.485072

 energy correction for charged system         0.000000 eV
 dipol+quadrupol energy correction           -0.015617 eV
 added-field ion interaction        -42.310880 eV  (added to PSCEN)


 Free energy of the ion-electron system (eV)
  ---------------------------------------------------
  alpha Z        PSCENC =      2991.96955218
  Ewald energy   TEWEN  =    263807.33353975
  -Hartree energ DENC   =   -360844.08704298
  -exchange      EXHF   =         0.00000000
  -V(xc)+E(xc)   XCENC  =     -5909.87053766
  PAW double counting   =     90527.62511052   -81179.02344425
  entropy T*S    EENTRO =        -0.08004886
  eigenvalues    EBANDS =     -1370.05298920
  atomic energy  EATOM  =     89943.77999512
  Solvation  Ediel_sol  =         0.00000000
  ---------------------------------------------------
  free energy    TOTEN  =     -2032.40586538 eV

  energy without entropy =    -2032.32581652  energy(sigma->0) =    -2032.36584095


--------------------------------------------------------------------------------------------------------




--------------------------------------- Iteration      1(   4)  ---------------------------------------


     EDDAV:  cpu time   92.3441: real time   92.3860
       DOS:  cpu time    0.0032: real time    0.0032
    --------------------------------------------
      LOOP:  cpu time   92.3473: real time   92.3892

 eigenvalue-minimisations  : 13200
 total energy-change (2. order) :-0.5395936E+02  (-0.5202845E+02)
 number of electron    1628.0000000 magnetization 
 augmentation part     1628.0000000 magnetization 

 DIPCOR: dipole corrections for dipol
 direction  3 min pos   157,
 dipolmoment           0.000000      0.000000     -1.006810 electrons x Angstroem
 Tr[quadrupol]   -101594.485072

 energy correction for charged system         0.000000 eV
 dipol+quadrupol energy correction           -0.015617 eV
 added-field ion interaction        -42.310880 eV  (added to PSCEN)


 Free energy of the ion-electron system (eV)
  ---------------------------------------------------
  alpha Z        PSCENC =      2991.96955218
  Ewald energy   TEWEN  =    263807.33353975
  -Hartree energ DENC   =   -360844.08704298
  -exchange      EXHF   =         0.00000000
  -V(xc)+E(xc)   XCENC  =     -5909.87053766
  PAW double counting   =     90527.62511052   -81179.02344425
  entropy T*S    EENTRO =        -0.09396427
  eigenvalues    EBANDS =     -1423.99843424
  atomic energy  EATOM  =     89943.77999512
  Solvation  Ediel_sol  =         0.00000000
  ---------------------------------------------------
  free energy    TOTEN  =     -2086.36522582 eV

  energy without entropy =    -2086.27126156  energy(sigma->0) =    -2086.31824369


--------------------------------------------------------------------------------------------------------




--------------------------------------- Iteration      1(   5)  ---------------------------------------


     EDDAV:  cpu time  108.6284: real time  108.6662
       DOS:  cpu time    0.0031: real time    0.0031
    --------------------------------------------
      LOOP:  cpu time  108.6315: real time  108.6693

 eigenvalue-minimisations  : 15936
 total energy-change (2. order) :-0.2484542E+01  (-0.2441168E+01)
 number of electron    1628.0000000 magnetization 
 augmentation part     1628.0000000 magnetization 

 DIPCOR: dipole corrections for dipol
 direction  3 min pos   157,
 dipolmoment           0.000000      0.000000     -1.006810 electrons x Angstroem
 Tr[quadrupol]   -101594.485072

 energy correction for charged system         0.000000 eV
 dipol+quadrupol energy correction           -0.015617 eV
 added-field ion interaction        -42.310880 eV  (added to PSCEN)


 Free energy of the ion-electron system (eV)
  ---------------------------------------------------
  alpha Z        PSCENC =      2991.96955218
  Ewald energy   TEWEN  =    263807.33353975
  -Hartree energ DENC   =   -360844.08704298
  -exchange      EXHF   =         0.00000000
  -V(xc)+E(xc)   XCENC  =     -5909.87053766
  PAW double counting   =     90527.62511052   -81179.02344425
  entropy T*S    EENTRO =        -0.09496130
  eigenvalues    EBANDS =     -1426.48197874
  atomic energy  EATOM  =     89943.77999512
  Solvation  Ediel_sol  =         0.00000000
  ---------------------------------------------------
  free energy    TOTEN  =     -2088.84976737 eV

  energy without entropy =    -2088.75480606  energy(sigma->0) =    -2088.80228672


--------------------------------------------------------------------------------------------------------




--------------------------------------- Iteration      1(   6)  ---------------------------------------


     EDDAV:  cpu time  101.3780: real time  101.4049
       DOS:  cpu time    0.0030: real time    0.0030
    --------------------------------------------
      LOOP:  cpu time  101.3810: real time  101.4079

 eigenvalue-minimisations  : 14784
 total energy-change (2. order) :-0.1281790E+00  (-0.1270543E+00)
 number of electron    1628.0000000 magnetization 
 augmentation part     1628.0000000 magnetization 

 DIPCOR: dipole corrections for dipol
 direction  3 min pos   157,
 dipolmoment           0.000000      0.000000     -1.006810 electrons x Angstroem
 Tr[quadrupol]   -101594.485072

 energy correction for charged system         0.000000 eV
[...]
    --------------------------------------------
      LOOP:  cpu time   58.7764: real time   58.8086

 eigenvalue-minimisations  : 10834
 total energy-change (2. order) :-0.3081173E-03  (-0.6202828E-04)
 number of electron    1628.0000027 magnetization 
 augmentation part      528.8517834 magnetization 

 DIPCOR: dipole corrections for dipol
 direction  3 min pos   157,
 dipolmoment           0.000000      0.000000     -0.720720 electrons x Angstroem
 Tr[quadrupol]   -101665.493013

 energy correction for charged system         0.000000 eV
 dipol+quadrupol energy correction           -0.008003 eV
 added-field ion interaction        -30.285297 eV  (added to PSCEN)


 eigenvalues of (default mixing * dielectric matrix)
  average eigenvalue GAMMA=   0.1685
  0.1685

  free energy =  -0.193019891334E+04  energy without entropy=  -0.193006956122E+04


--------------------------------------------------------------------------------------------------------




--------------------------------------- Iteration     11(   3)  ---------------------------------------


    POTLOK:  cpu time    0.1734: real time    0.1750
    SETDIJ:  cpu time    0.0204: real time    0.0204
    EDDIAG:  cpu time   13.6944: real time   13.6984
  RMM-DIIS:  cpu time   35.7880: real time   35.8075
    ORTHCH:  cpu time    4.3787: real time    4.3804
       DOS:  cpu time    0.0012: real time    0.0012
    CHARGE:  cpu time    3.1035: real time    3.1067
    MIXING:  cpu time    0.0051: real time    0.0051
    --------------------------------------------
      LOOP:  cpu time   57.1648: real time   57.1947

 eigenvalue-minimisations  : 10270
 total energy-change (2. order) : 0.3010851E-03  (-0.1903851E-04)
 number of electron    1628.0000027 magnetization 
 augmentation part      528.8512822 magnetization 

 DIPCOR: dipole corrections for dipol
 direction  3 min pos   157,
 dipolmoment           0.000000      0.000000     -0.721795 electrons x Angstroem
 Tr[quadrupol]   -101665.489918

 energy correction for charged system         0.000000 eV
 dipol+quadrupol energy correction           -0.008027 eV
 added-field ion interaction        -30.330480 eV  (added to PSCEN)


 eigenvalues of (default mixing * dielectric matrix)
  average eigenvalue GAMMA=   0.1809
  0.2247  0.1371

  free energy =  -0.193019861225E+04  energy without entropy=  -0.193006931537E+04


--------------------------------------------------------------------------------------------------------




--------------------------------------- Iteration     11(   4)  ---------------------------------------


    POTLOK:  cpu time    0.1694: real time    0.1699
    SETDIJ:  cpu time    0.0205: real time    0.0205
    EDDIAG:  cpu time   13.7036: real time   13.7086
  RMM-DIIS:  cpu time   25.3761: real time   25.3951
    ORTHCH:  cpu time    4.3681: real time    4.3695
       DOS:  cpu time    0.0012: real time    0.0011
    CHARGE:  cpu time    3.1138: real time    3.1152
    MIXING:  cpu time    0.0058: real time    0.0058
    --------------------------------------------
      LOOP:  cpu time   46.7584: real time   46.7856

 eigenvalue-minimisations  :  7190
 total energy-change (2. order) : 0.1334751E-04  (-0.4437521E-05)
 number of electron    1628.0000027 magnetization 
 augmentation part      528.8518185 magnetization 

 DIPCOR: dipole corrections for dipol
 direction  3 min pos   157,
 dipolmoment           0.000000      0.000000     -0.720303 electrons x Angstroem
 Tr[quadrupol]   -101665.493552

 energy correction for charged system         0.000000 eV
 dipol+quadrupol energy correction           -0.007994 eV
 added-field ion interaction        -30.267784 eV  (added to PSCEN)


 eigenvalues of (default mixing * dielectric matrix)
  average eigenvalue GAMMA=   0.2107
  0.3589  0.1680  0.1052

  free energy =  -0.193019859891E+04  energy without entropy=  -0.193006924628E+04


--------------------------------------------------------------------------------------------------------




--------------------------------------- Iteration     11(   5)  ---------------------------------------


    POTLOK:  cpu time    0.1731: real time    0.1739
    SETDIJ:  cpu time    0.0204: real time    0.0204
    EDDIAG:  cpu time   13.7944: real time   13.8005
  RMM-DIIS:  cpu time   20.6637: real time   20.6717
    ORTHCH:  cpu time    4.4893: real time    4.4904
       DOS:  cpu time    0.0012: real time    0.0012
    --------------------------------------------
      LOOP:  cpu time   39.1421: real time   39.1580

 eigenvalue-minimisations  :  5809
 total energy-change (2. order) : 0.1615539E-05  (-0.1394674E-05)
 number of electron    1628.0000027 magnetization 
 augmentation part      528.8518185 magnetization 

 DIPCOR: dipole corrections for dipol
 direction  3 min pos   157,
 dipolmoment           0.000000      0.000000     -0.721964 electrons x Angstroem
 Tr[quadrupol]   -101665.489610

 energy correction for charged system         0.000000 eV
 dipol+quadrupol energy correction           -0.008030 eV
 added-field ion interaction        -30.337583 eV  (added to PSCEN)


  free energy =  -0.193019859729E+04  energy without entropy=  -0.193006930852E+04


--------------------------------------------------------------------------------------------------------




------------------------ aborting loop because EDIFF is reached ----------------------------------------


    CHARGE:  cpu time    3.1210: real time    3.1224
    FORLOC:  cpu time    0.1751: real time    0.1752
    FORNL :  cpu time   12.6746: real time   12.6810
    STRESS:  cpu time   37.7283: real time   37.7474
    FORCOR:  cpu time    0.2803: real time    0.2803
    FORHAR:  cpu time    0.2027: real time    0.2027
    MIXING:  cpu time    0.0052: real time    0.0052
    OFIELD:  cpu time    0.0001: real time    0.0001

  Number of pair interactions contributing to vdW energy: 1244819
  Edisp (eV):  -18.74003
    FORVDW:  cpu time    0.1697: real time    0.1698

  FORCE on cell =-STRESS in cart. coord.  units (eV):
  Direction    XX          YY          ZZ          XY          YZ          ZX
  --------------------------------------------------------------------------------------
  Alpha Z  3034.29605  3034.29605  3034.29605
  Ewald  331379.46463330223.82829************  2595.17277   -34.14836   -31.81945
  Hartree352722.74958351720.08854************  2359.43149   -38.10209   -12.25149
  E(xc)   -7566.13747 -7566.36608 -7582.73163     0.36829    -0.01663    -0.04098
  Local  ************************715859.12905 -4960.14090    70.69422    47.53570
  n-local  2067.80711  2066.65208  1822.96862     0.74913     0.18330    -0.56995
  augment  8674.31879  8674.24802  8679.54415     0.11242     0.01894    -0.04163
  Kinetic 19202.84458 19197.24438 19335.98278     4.97937     1.77810    -2.85412
  Fock        0.00000     0.00000     0.00000     0.00000     0.00000     0.00000
  vdW       -22.76824   -22.29944   -19.84043    -0.62792    -0.02018     0.02948
  -------------------------------------------------------------------------------------
  Total    -163.12297  -163.06923   -78.24730     0.04465     0.38730    -0.01243
  in kB     -42.73796   -42.72388   -20.50067     0.01170     0.10147    -0.00326
  external pressure =      -35.32 kB  Pullay stress =        0.00 kB



--------------------------------------------------------------------------------------------------------



  FREE ENERGIE OF THE ION-ELECTRON SYSTEM (eV)
  ---------------------------------------------------
  free  energy   TOTEN  =     -1948.93862673 eV

  energy  without entropy=    -1948.80933796  energy(sigma->0) =    -1948.87398234
 
 d Force = 0.2535111E-05[-0.622E-05, 0.113E-04]  d Energy =-0.1777931E-04 0.203E-04
 d Force = 0.3353590E+00[ 0.335E+00, 0.335E+00]  d Ewald  = 0.3353590E+00-0.582E-09


--------------------------------------------------------------------------------------------------------


    POTLOK:  cpu time    0.1944: real time    0.1954


--------------------------------------------------------------------------------------------------------




--------------------------------------------------------------------------------------------------------


    WAVPRE:  cpu time    0.1412: real time    0.1426
    FEWALD:  cpu time    0.0100: real time    0.0100
    ORTHCH:  cpu time    8.5547: real time    8.5586
     LOOP+:  cpu time  348.7061: real time  348.8753


--------------------------------------- Iteration     12(   1)  ---------------------------------------


    POTLOK:  cpu time    0.1705: real time    0.1709
    SETDIJ:  cpu time    0.0203: real time    0.0203
     EDDAV:  cpu time   78.3542: real time   78.3904
       DOS:  cpu time    0.0014: real time    0.0014
    CHARGE:  cpu time    3.0983: real time    3.0994
    MIXING:  cpu time    0.0044: real time    0.0044
    --------------------------------------------
      LOOP:  cpu time   81.6491: real time   81.6868

 eigenvalue-minimisations  : 10560
 total energy-change (2. order) :-0.9769935E-04  (-0.1394185E-02)
 number of electron    1628.0000027 magnetization 
 augmentation part      528.8516128 magnetization 

 DIPCOR: dipole corrections for dipol
 direction  3 min pos   157,
 dipolmoment           0.000000      0.000000     -0.720750 electrons x Angstroem
 Tr[quadrupol]   -101665.251750

 energy correction for charged system         0.000000 eV
 dipol+quadrupol energy correction           -0.008003 eV
 added-field ion interaction        -30.286426 eV  (added to PSCEN)


  free energy =  -0.193019869660E+04  energy without entropy=  -0.193006936269E+04


--------------------------------------------------------------------------------------------------------




--------------------------------------- Iteration     12(   2)  ---------------------------------------


    POTLOK:  cpu time    0.1713: real time    0.1719
    SETDIJ:  cpu time    0.0204: real time    0.0204
    EDDIAG:  cpu time   13.7634: real time   13.7708
  RMM-DIIS:  cpu time   36.5774: real time   36.5951
    ORTHCH:  cpu time    4.3559: real time    4.3569
       DOS:  cpu time    0.0012: real time    0.0012
    CHARGE:  cpu time    3.1066: real time    3.1074
    MIXING:  cpu time    0.0046: real time    0.0046
    --------------------------------------------
      LOOP:  cpu time   58.0008: real time   58.0283

 eigenvalue-minimisations  : 10509
 total energy-change (2. order) :-0.1349890E-03  (-0.3772948E-04)
 number of electron    1628.0000027 magnetization 
 augmentation part      528.8507547 magnetization 

 DIPCOR: dipole corrections for dipol
 direction  3 min pos   157,
 dipolmoment           0.000000      0.000000     -0.723934 electrons x Angstroem
 Tr[quadrupol]   -101665.243734

 energy correction for charged system         0.000000 eV
 dipol+quadrupol energy correction           -0.008074 eV
 added-field ion interaction        -30.420191 eV  (added to PSCEN)


 eigenvalues of (default mixing * dielectric matrix)
  average eigenvalue GAMMA=   0.1601
  0.1601

  free energy =  -0.193019883159E+04  energy without entropy=  -0.193006962411E+04


--------------------------------------------------------------------------------------------------------




--------------------------------------- Iteration     12(   3)  ---------------------------------------


    POTLOK:  cpu time    0.1718: real time    0.1732
    SETDIJ:  cpu time    0.0204: real time    0.0204
    EDDIAG:  cpu time   13.7782: real time   13.7842
  RMM-DIIS:  cpu time   31.3203: real time   31.3365
    ORTHCH:  cpu time    4.3687: real time    4.3700
       DOS:  cpu time    0.0012: real time    0.0012
    CHARGE:  cpu time    3.1014: real time    3.1027
    MIXING:  cpu time    0.0048: real time    0.0048
    --------------------------------------------
      LOOP:  cpu time   52.7669: real time   52.7931

 eigenvalue-minimisations  :  8909
 total energy-change (2. order) : 0.7767641E-04  (-0.9280162E-05)
 number of electron    1628.0000027 magnetization 
 augmentation part      528.8523960 magnetization 

 DIPCOR: dipole corrections for dipol
 direction  3 min pos   157,
 dipolmoment           0.000000      0.000000     -0.718762 electrons x Angstroem
 Tr[quadrupol]   -101665.257454

 energy correction for charged system         0.000000 eV
 dipol+quadrupol energy correction           -0.007959 eV
 added-field ion interaction        -30.202855 eV  (added to PSCEN)


 eigenvalues of (default mixing * dielectric matrix)
  average eigenvalue GAMMA=   0.1751
  0.2784  0.0718

  free energy =  -0.193019875392E+04  energy without entropy=  -0.193006934266E+04


--------------------------------------------------------------------------------------------------------




--------------------------------------- Iteration     12(   4)  ---------------------------------------


    POTLOK:  cpu time    0.1718: real time    0.1722
    SETDIJ:  cpu time    0.0204: real time    0.0204
    EDDIAG:  cpu time   13.7718: real time   13.7781
  RMM-DIIS:  cpu time   23.3644: real time   23.3797
    ORTHCH:  cpu time    4.4849: real time    4.4864
       DOS:  cpu time    0.0012: real time    0.0012
    CHARGE:  cpu time    3.1035: real time    3.1050
    MIXING:  cpu time    0.0052: real time    0.0052
    --------------------------------------------
      LOOP:  cpu time   44.9232: real time   44.9481

 eigenvalue-minimisations  :  6668
 total energy-change (2. order) : 0.4178418E-04  (-0.3313753E-05)
 number of electron    1628.0000027 magnetization 
 augmentation part      528.8514133 magnetization 

 DIPCOR: dipole corrections for dipol
 direction  3 min pos   157,
 dipolmoment           0.000000      0.000000     -0.721625 electrons x Angstroem
 Tr[quadrupol]   -101665.251452

 energy correction for charged system         0.000000 eV
 dipol+quadrupol energy correction           -0.008023 eV
 added-field ion interaction        -30.323187 eV  (added to PSCEN)


 eigenvalues of (default mixing * dielectric matrix)
  average eigenvalue GAMMA=   0.2589
  0.5438  0.1668  0.0661

  free energy =  -0.193019871213E+04  energy without entropy=  -0.193006940377E+04


--------------------------------------------------------------------------------------------------------




--------------------------------------- Iteration     12(   5)  ---------------------------------------


    POTLOK:  cpu time    0.1719: real time    0.1725
    SETDIJ:  cpu time    0.0204: real time    0.0204
    EDDIAG:  cpu time   13.6652: real time   13.6715
  RMM-DIIS:  cpu time   19.6338: real time   19.6442
    ORTHCH:  cpu time    4.3474: real time    4.3493
       DOS:  cpu time    0.0011: real time    0.0011
    --------------------------------------------
      LOOP:  cpu time   37.8399: real time   37.8590

 eigenvalue-minimisations  :  5686
 total energy-change (2. order) : 0.5083813E-05  (-0.1611075E-05)
 number of electron    1628.0000027 magnetization 
 augmentation part      528.8514133 magnetization 

 DIPCOR: dipole corrections for dipol
 direction  3 min pos   157,
 dipolmoment           0.000000      0.000000     -0.721099 electrons x Angstroem
 Tr[quadrupol]   -101665.253656

 energy correction for charged system         0.000000 eV
 dipol+quadrupol energy correction           -0.008011 eV
 added-field ion interaction        -30.301062 eV  (added to PSCEN)


  free energy =  -0.193019870705E+04  energy without entropy=  -0.193006937483E+04


--------------------------------------------------------------------------------------------------------




------------------------ aborting loop because EDIFF is reached ----------------------------------------


    CHARGE:  cpu time    3.1071: real time    3.1083
    FORLOC:  cpu time    0.1753: real time    0.1753
    FORNL :  cpu time   12.6459: real time   12.6512
    STRESS:  cpu time   37.7115: real time   37.7243
    FORCOR:  cpu time    0.2764: real time    0.2765
    FORHAR:  cpu time    0.2018: real time    0.2019
    MIXING:  cpu time    0.0052: real time    0.0052
    OFIELD:  cpu time    0.0001: real time    0.0001

  Number of pair interactions contributing to vdW energy: 1244818
  Edisp (eV):  -18.74005
    FORVDW:  cpu time    0.1697: real time    0.1697

  FORCE on cell =-STRESS in cart. coord.  units (eV):
  Direction    XX          YY          ZZ          XY          YZ          ZX
  --------------------------------------------------------------------------------------
  Alpha Z  3034.29605  3034.29605  3034.29605
  Ewald  331377.91503330222.55938************  2595.34001   -34.00677   -31.80815
  Hartree352719.94843351717.60657************  2359.59567   -37.88600   -12.24498
  E(xc)   -7566.12945 -7566.35794 -7582.72363     0.36840    -0.01694    -0.04110
  Local  ************************715854.76190 -4960.45752    70.34226    47.52806
  n-local  2067.79437  2066.65046  1822.91456     0.74284     0.19130    -0.56890
  augment  8674.31921  8674.24947  8679.56727     0.11348     0.01768    -0.04228
  Kinetic 19202.82371 19197.22270 19335.96609     4.97218     1.76942    -2.86168
  Fock        0.00000     0.00000     0.00000     0.00000     0.00000     0.00000
  vdW       -22.76808   -22.29941   -19.84008    -0.62802    -0.02031     0.02945
  -------------------------------------------------------------------------------------
  Total    -163.12400  -163.05928   -78.28881     0.04704     0.39063    -0.00957
  in kB     -42.73823   -42.72128   -20.51155     0.01232     0.10234    -0.00251
  external pressure =      -35.32 kB  Pullay stress =        0.00 kB



--------------------------------------------------------------------------------------------------------



  FREE ENERGIE OF THE ION-ELECTRON SYSTEM (eV)
  ---------------------------------------------------
  free  energy   TOTEN  =     -1948.93875950 eV

  energy  without entropy=    -1948.80942728  energy(sigma->0) =    -1948.87409339
 
 d Force = 0.1345212E-03[ 0.103E-03, 0.166E-03]  d Energy = 0.1327700E-03 0.175E-05
 d Force = 0.1242030E+01[ 0.124E+01, 0.124E+01]  d Ewald  = 0.1242030E+01 0.216E-06


--------------------------------------------------------------------------------------------------------


    POTLOK:  cpu time    0.1935: real time    0.1965


--------------------------------------------------------------------------------------------------------


 Conjugate gradient step on ions:
 trial-energy change:   -0.000133  1 .order   -0.000135   -0.000166   -0.000103
  (g-gl).g = 0.161E-03      g.g   = 0.143E-03  gl.gl    = 0.357E-03
 g(Force)  = 0.143E-03   g(Stress)= 0.000E+00 ortho     =-0.212E-04
 gamma     =   0.45068
 trial     =   1.24437
 opt step  =   3.30543  (harmonic =   3.30543) maximal distance =0.00169443
 next E    = -1948.938847   (d E  =  -0.00022)


--------------------------------------------------------------------------------------------------------


  
 reached required accuracy - stopping structural energy minimisation
     LOOP+:  cpu time  329.7720: real time  329.9314
    4ORBIT:  cpu time    0.0000: real time    0.0000

 total amount of memory used by VASP MPI-rank0   414513. kBytes
=======================================================================

   base      :      30000. kBytes
   nonlr-proj:      85147. kBytes
   fftplans  :      11107. kBytes
   grid      :      55284. kBytes
   one-center:       3716. kBytes
   wavefun   :     229259. kBytes
 
  
  
 General timing and accounting informations for this job:
 ========================================================
  
                  Total CPU time used (sec):     7891.965
                            User time (sec):     7861.709
                          System time (sec):       30.256
                         Elapsed time (sec):     7896.477
  
                   Maximum memory used (kb):      862340.
                   Average memory used (kb):           0.
  
                          Minor page faults:      2358410
                          Major page faults:            0
                 Voluntary context switches:         5401
