 vasp.5.3.2 13Sep12 (build Oct 24 2012 13:28:27) complex                        
  
 executed on             LinuxIFC date 2016.06.10  16:14:00
 running on    4 total cores
 distrk:  each k-point on    4 cores,    1 groups
 distr:  one band on NCORES_PER_BAND=   1 cores,    4 groups


--------------------------------------------------------------------------------------------------------


 INCAR:
 POTCAR:    PAW_PBE Au 04Oct2007                  
 POTCAR:    PAW_PBE Au 04Oct2007                  
  local pseudopotential read in
  partial core-charges read in
  partial kinetic energy density read in
  atomic valenz-charges read in
  non local Contribution for L=           2  read in
    real space projection operators read in
  non local Contribution for L=           2  read in
    real space projection operators read in
  non local Contribution for L=           0  read in
    real space projection operators read in
  non local Contribution for L=           0  read in
    real space projection operators read in
  non local Contribution for L=           1  read in
    real space projection operators read in
  non local Contribution for L=           1  read in
    real space projection operators read in
    PAW grid and wavefunctions read in
 
   number of l-projection  operators is LMAX  =           6
   number of lm-projection operators is LMMAX =          18
 
 Optimization of the real space projectors (new method)

 maximal supplied QI-value         = 15.12
 optimisation between [QCUT,QGAM] = [ 10.73, 21.62] = [ 32.26,130.87] Ry 
 Optimized for a Real-space Cutoff    1.42 Angstroem

   l    n(q)    QCUT    max X(q) W(low)/X(q) W(high)/X(q)  e(spline) 
   2      8    10.734    60.898    0.15E-03    0.34E-03    0.26E-06
   2      8    10.734    58.894    0.16E-03    0.35E-03    0.27E-06
   0      9    10.734   109.617    0.92E-04    0.16E-03    0.12E-06
   0      9    10.734    75.026    0.89E-04    0.15E-03    0.11E-06
   1      9    10.734    16.344    0.25E-03    0.88E-04    0.14E-06
   1      9    10.734    10.160    0.20E-03    0.77E-04    0.11E-06
  PAW_PBE Au 04Oct2007                  :
 energy of atom  1       EATOM= -926.0867
 kinetic energy error for atom=    0.0057 (will be added to EATOM!!)
 
 
 POSCAR: Au                                      
  positions in direct lattice
  velocities in cartesian coordinates
  No initial velocities read in
 exchange correlation table for  LEXCH =        8
   RHO(1)=    0.500       N(1)  =     2000
   RHO(2)=  100.500       N(2)  =     4000
 


--------------------------------------------------------------------------------------------------------


 ion  position               nearest neighbor table
   1  0.000  0.000  0.000-   2 2.94  12 2.94   8 2.94   6 2.94  20 2.94  18 2.94  13 2.94   5 2.94
                             9 2.94
   2  0.167  0.167  0.000-   9 2.94   1 2.94   6 2.94   7 2.94  13 2.94   4 2.94  14 2.94  15 2.94
                             3 2.94
   3  0.333  0.333  0.000-   8 2.94  10 2.94   5 2.94   4 2.94  17 2.94   7 2.94  19 2.94  15 2.94
                             2 2.94
   4  0.500  0.000  0.000-   5 2.94   9 2.94   3 2.94  11 2.94  23 2.94  15 2.94  16 2.94  12 2.94
                             2 2.94
   5  0.667  0.167  0.000-  12 2.94   4 2.94   3 2.94  10 2.94  16 2.94   1 2.94  17 2.94  18 2.94
                             6 2.94
   6  0.833  0.333  0.000-  11 2.94   7 2.94   2 2.94   1 2.94  14 2.94  10 2.94  22 2.94  18 2.94
                             5 2.94
   7  0.000  0.500  0.000-   6 2.94   8 2.94   2 2.94  12 2.94  14 2.94  24 2.94  19 2.94   3 2.94
                            11 2.94
   8  0.167  0.667  0.000-   3 2.94   7 2.94  12 2.94   1 2.94  19 2.94  10 2.94  20 2.94  21 2.94
                             9 2.94
   9  0.333  0.833  0.000-   2 2.94   4 2.94  11 2.94  10 2.94  23 2.94   1 2.94  13 2.94  21 2.94
                             8 2.94
  10  0.500  0.500  0.000-   3 2.94  11 2.94   9 2.94   5 2.94  17 2.94  21 2.94  22 2.94   8 2.94
                             6 2.94
  11  0.667  0.667  0.000-   6 2.94  10 2.94   9 2.94   4 2.94  22 2.94   7 2.94  23 2.94  24 2.94
                            12 2.94
  12  0.833  0.833  0.000-   5 2.94   1 2.94   8 2.94   7 2.94  20 2.94   4 2.94  16 2.94  24 2.94
                            11 2.94
  13  0.167  0.000  0.120-  33 2.94  25 2.94  26 2.94  20 2.94  18 2.94  21 2.94  14 2.94  15 2.94
                             2 2.94   1 2.94  23 2.94   9 2.94
  14  0.000  0.333  0.120-  35 2.94  27 2.94  25 2.94  24 2.94  19 2.94  13 2.94  18 2.94   7 2.94
                             6 2.94  15 2.94  22 2.94   2 2.94
  15  0.333  0.167  0.120-  26 2.94  28 2.94  27 2.94  23 2.94  16 2.94  19 2.94  17 2.94  13 2.94
                             4 2.94  14 2.94   3 2.94   2 2.94
  16  0.667  0.000  0.120-  36 2.94  28 2.94  29 2.94  23 2.94  15 2.94  24 2.94  17 2.94  18 2.94
                             5 2.94   4 2.94  20 2.94  12 2.94
  17  0.500  0.333  0.120-  32 2.94  30 2.94  28 2.94  21 2.94  22 2.94  16 2.94  15 2.94  10 2.94
                             3 2.94  19 2.94  18 2.94   5 2.94
  18  0.833  0.167  0.120-  29 2.94  25 2.94  30 2.94  20 2.94  13 2.94  22 2.94  16 2.94  14 2.94
                             1 2.94  17 2.94   6 2.94   5 2.94
  19  0.167  0.500  0.120-  27 2.94  31 2.94  32 2.94  14 2.94  24 2.94  15 2.94  20 2.94  21 2.94
                             8 2.94   7 2.94  17 2.94   3 2.94
  20  0.000  0.833  0.120-  29 2.94  33 2.94  31 2.94  18 2.94  13 2.94  19 2.94  24 2.94   1 2.94
                            12 2.94  16 2.94  21 2.94   8 2.94
  21  0.333  0.667  0.120-  32 2.94  34 2.94  33 2.94  17 2.94  22 2.94  13 2.94  23 2.94  19 2.94
                            10 2.94  20 2.94   9 2.94   8 2.94
  22  0.667  0.500  0.120-  30 2.94  34 2.94  35 2.94  17 2.94  21 2.94  23 2.94  18 2.94  24 2.94
                            11 2.94  10 2.94  14 2.94   6 2.94
  23  0.500  0.833  0.120-  26 2.94  36 2.94  34 2.94  15 2.94  16 2.94  22 2.94  21 2.94   4 2.94
                             9 2.94  24 2.94  13 2.94  11 2.94
  24  0.833  0.667  0.120-  35 2.94  31 2.94  36 2.94  14 2.94  19 2.94  16 2.94  22 2.94  20 2.94
                             7 2.94  23 2.94  12 2.94  11 2.94
  25  0.000  0.167  0.240-  13 2.94  18 2.94  14 2.94  33 2.94  29 2.94  35 2.94  27 2.94  37 2.94
                            38 2.94  26 2.94  30 2.94  42 2.94
  26  0.333  0.000  0.240-  15 2.94  23 2.94  13 2.94  28 2.94  36 2.94  34 2.94  27 2.94  33 2.94
                            45 2.94  40 2.94  25 2.94  38 2.94
  27  0.167  0.333  0.240-  19 2.94  14 2.94  15 2.94  31 2.94  35 2.94  26 2.94  32 2.94  25 2.94
                            43 2.94  28 2.94  38 2.94  39 2.94
  28  0.500  0.167  0.240-  16 2.94  15 2.94  17 2.94  36 2.94  26 2.94  32 2.94  30 2.94  40 2.94
                            41 2.94  29 2.94  27 2.94  39 2.94
  29  0.833  0.000  0.240-  18 2.94  20 2.94  16 2.94  25 2.94  33 2.94  31 2.94  30 2.94  36 2.94
                            48 2.94  37 2.94  28 2.94  41 2.94
  30  0.667  0.333  0.240-  22 2.94  17 2.94  18 2.94  34 2.94  32 2.94  29 2.94  28 2.94  35 2.94
                            46 2.94  25 2.94  41 2.94  42 2.94
  31  0.000  0.667  0.240-  19 2.94  24 2.94  20 2.94  27 2.94  35 2.94  29 2.94  33 2.94  43 2.94
                            44 2.94  32 2.94  36 2.94  48 2.94
  32  0.333  0.500  0.240-  21 2.94  17 2.94  19 2.94  34 2.94  30 2.94  33 2.94  28 2.94  27 2.94
                            39 2.94  46 2.94  31 2.94  44 2.94
  33  0.167  0.833  0.240-  13 2.94  20 2.94  21 2.94  25 2.94  29 2.94  32 2.94  31 2.94  26 2.94
                            37 2.94  34 2.94  44 2.94  45 2.94
  34  0.500  0.667  0.240-  22 2.94  21 2.94  23 2.94  30 2.94  32 2.94  26 2.94  36 2.94  46 2.94
                            47 2.94  35 2.94  33 2.94  45 2.94
  35  0.833  0.500  0.240-  24 2.94  14 2.94  22 2.94  31 2.94  27 2.94  25 2.94  36 2.94  30 2.94
                            42 2.94  43 2.94  34 2.94  47 2.94
  36  0.667  0.833  0.240-  16 2.94  23 2.94  24 2.94  28 2.94  26 2.94  35 2.94  34 2.94  29 2.94
                            40 2.94  31 2.94  47 2.94  48 2.94
  37  0.000  0.000  0.360-  38 2.94  48 2.94  44 2.94  42 2.94  25 2.94  33 2.94  29 2.94  45 2.94
                            41 2.94
  38  0.167  0.167  0.360-  45 2.94  37 2.94  42 2.94  43 2.94  25 2.94  40 2.94  26 2.94  27 2.94
                            39 2.94
  39  0.333  0.333  0.360-  44 2.94  46 2.94  41 2.94  40 2.94  32 2.94  43 2.94  28 2.94  27 2.94
                            38 2.94
  40  0.500  0.000  0.360-  41 2.94  45 2.94  39 2.94  47 2.94  28 2.94  36 2.94  26 2.94  38 2.94
                            48 2.94
  41  0.667  0.167  0.360-  48 2.94  40 2.94  39 2.94  46 2.94  28 2.94  37 2.94  29 2.94  30 2.94
                            42 2.94
  42  0.833  0.333  0.360-  47 2.94  43 2.94  38 2.94  37 2.94  35 2.94  46 2.94  25 2.94  30 2.94
                            41 2.94
  43  0.000  0.500  0.360-  42 2.94  44 2.94  38 2.94  48 2.94  31 2.94  27 2.94  35 2.94  47 2.94
                            39 2.94
  44  0.167  0.667  0.360-  39 2.94  43 2.94  48 2.94  37 2.94  31 2.94  46 2.94  32 2.94  33 2.94
                            45 2.94
  45  0.333  0.833  0.360-  38 2.94  40 2.94  47 2.94  46 2.94  26 2.94  37 2.94  34 2.94  33 2.94
                            44 2.94
  46  0.500  0.500  0.360-  39 2.94  47 2.94  45 2.94  41 2.94  34 2.94  30 2.94  32 2.94  42 2.94
                            44 2.94
  47  0.667  0.667  0.360-  42 2.94  46 2.94  45 2.94  40 2.94  34 2.94  43 2.94  35 2.94  36 2.94
                            48 2.94
  48  0.833  0.833  0.360-  41 2.94  37 2.94  44 2.94  43 2.94  29 2.94  40 2.94  31 2.94  36 2.94
                            47 2.94
 
  LATTYP: Found a hexagonal cell.
 ALAT       =    10.1802357175
 C/A-ratio  =     1.9645910522
  
  Lattice vectors:
  
 A1 = (   5.0901178587,  -8.8163427478,   0.0000000000)
 A2 = ( -10.1802357175,   0.0000000000,   0.0000000000)
 A3 = (   0.0000000000,   0.0000000000, -20.0000000000)


Analysis of symmetry for initial positions (statically):
=====================================================================
 Subroutine PRICEL returns following result:
 
  LATTYP: Found a hexagonal cell.
 ALAT       =     2.9387809159
 C/A-ratio  =     6.8055430371
  
  Lattice vectors:
  
 A1 = (  -2.5450589294,  -1.4693904580,   0.0000000000)
 A2 = (   0.0000000000,   2.9387809159,   0.0000000000)
 A3 = (   0.0000000000,   0.0000000000, -20.0000000000)
 
  12 primitive cells build up your supercell.
 

 Routine SETGRP: Setting up the symmetry group for a 
 hexagonal supercell.


 Subroutine GETGRP returns: Found 12 space group operations
 (whereof  6 operations were pure point group operations)
 out of a pool of 24 trial point group operations.


The static configuration has the point symmetry C_3v.
 The point group associated with its full space group is D_3d.


Analysis of symmetry for dynamics (positions and initial velocities):
=====================================================================
 Subroutine PRICEL returns following result:
 
  LATTYP: Found a hexagonal cell.
 ALAT       =     2.9387809159
 C/A-ratio  =     6.8055430371
  
  Lattice vectors:
  
 A1 = (  -2.5450589294,  -1.4693904580,   0.0000000000)
 A2 = (   0.0000000000,   2.9387809159,   0.0000000000)
 A3 = (   0.0000000000,   0.0000000000, -20.0000000000)
 
  12 primitive cells build up your supercell.
 

 Routine SETGRP: Setting up the symmetry group for a 
 hexagonal supercell.


 Subroutine GETGRP returns: Found 12 space group operations
 (whereof  6 operations were pure point group operations)
 out of a pool of 24 trial point group operations.


The dynamic configuration has the point symmetry C_3v.
 The point group associated with its full space group is D_3d.


Analysis of constrained symmetry for selective dynamics:
=====================================================================
 Subroutine PRICEL returns following result:
 
  LATTYP: Found a hexagonal cell.
 ALAT       =     2.9387809159
 C/A-ratio  =     6.8055430371
  
  Lattice vectors:
  
 A1 = (  -2.5450589294,  -1.4693904580,   0.0000000000)
 A2 = (   0.0000000000,   2.9387809159,   0.0000000000)
 A3 = (   0.0000000000,   0.0000000000, -20.0000000000)
 
  12 primitive cells build up your supercell.
 

 Routine SETGRP: Setting up the symmetry group for a 
 hexagonal supercell.


 Subroutine GETGRP returns: Found  6 space group operations
 (whereof  6 operations were pure point group operations)
 out of a pool of 24 trial point group operations.


The constrained configuration has the point symmetry C_3v.
 
 
 KPOINTS: K-POINTS                                

Automatic generation of k-mesh.
Space group operators:
 irot       det(A)        alpha          n_x          n_y          n_z        tau_x        tau_y        tau_z
    1     1.000000     0.000000     1.000000     0.000000     0.000000     0.000000     0.000000     0.000000
    2     1.000000   120.000000     0.000000     0.000000     1.000000     0.000000     0.000000     0.000000
    3     1.000000   120.000000     0.000000     0.000000    -1.000000     0.000000     0.000000     0.000000
    4    -1.000000   180.000000     0.866025    -0.500000     0.000000     0.000000     0.000000     0.000000
    5    -1.000000   180.000000     0.866025     0.500000     0.000000     0.000000     0.000000     0.000000
    6    -1.000000   179.999999     0.000000     1.000000     0.000000     0.000000     0.000000     0.000000
 
 Subroutine IBZKPT returns following result:
 ===========================================
 
 Found      3 irreducible k-points:
 
 Following reciprocal coordinates:
            Coordinates               Weight
  0.000000  0.000000  0.000000      1.000000
  0.333333  0.000000  0.000000      6.000000
 -0.333333  0.333333  0.000000      2.000000
 
 Following cartesian coordinates:
            Coordinates               Weight
  0.000000  0.000000  0.000000      1.000000
  0.032743 -0.018904  0.000000      6.000000
 -0.032743  0.056713  0.000000      2.000000
 


--------------------------------------------------------------------------------------------------------




 Dimension of arrays:
   k-points           NKPTS =      3   k-points in BZ     NKDIM =      3   number of bands    NBANDS=    288
   number of dos      NEDOS =    301   number of ions     NIONS =     48
   non local maximal  LDIM  =      6   non local SUM 2l+1 LMDIM =     18
   total plane-waves  NPLWV = 314928
   max r-space proj   IRMAX =   2164   max aug-charges    IRDMAX=  10927
   dimension x,y,z NGX =    54 NGY =   54 NGZ =  108
   dimension x,y,z NGXF=   108 NGYF=  108 NGZF=  216
   support grid    NGXF=   108 NGYF=  108 NGZF=  216
   ions per type =              48
 NGX,Y,Z   is equivalent  to a cutoff of   8.82,  8.82,  8.98 a.u.
 NGXF,Y,Z  is equivalent  to a cutoff of  17.64, 17.64, 17.95 a.u.


 I would recommend the setting:
   dimension x,y,z NGX =    53 NGY =   53 NGZ =  104
 SYSTEM =  Birch-Murnaghan                         
 POSCAR =  Au                                      

 Startparameter for this run:
   NWRITE =      0    write-flag & timer
   PREC   = normal    normal or accurate (medium, high low for compatibility)
   ISTART =      0    job   : 0-new  1-cont  2-samecut
   ICHARG =      2    charge: 1-file 2-atom 10-const
   ISPIN  =      1    spin polarized calculation?
   LNONCOLLINEAR =      F non collinear calculations
   LSORBIT =      F    spin-orbit coupling
   INIWAV =      1    electr: 0-lowe 1-rand  2-diag
   LASPH  =      F    aspherical Exc in radial PAW
   METAGGA=      F    non-selfconsistent MetaGGA calc.

 Electronic Relaxation 1
   ENCUT  =  450.0 eV  33.07 Ry    5.75 a.u.  17.61 17.61 34.59*2*pi/ulx,y,z
   ENINI  =  450.0     initial cutoff
   ENAUG  =  356.7 eV  augmentation charge cutoff
   NELM   =     60;   NELMIN=  5; NELMDL= -7     # of ELM steps 
   EDIFF  = 0.1E-05   stopping-criterion for ELM
   LREAL  =      T    real-space projection
   NLSPLINE    = F    spline interpolate recip. space projectors
   LCOMPAT=      F    compatible to vasp.4.4
   GGA_COMPAT  = T    GGA compatible to vasp.4.4-vasp.4.6
   LMAXPAW     = -100 max onsite density
   LMAXMIX     =    2 max onsite mixed and CHGCAR
   VOSKOWN=      0    Vosko Wilk Nusair interpolation
   ROPT   =   -0.00050
 Ionic relaxation
   EDIFFG = -.5E-02   stopping-criterion for IOM
   NSW    =     50    number of steps for IOM
   NBLOCK =      1;   KBLOCK =     50    inner block; outer block 
   IBRION =      1    ionic relax: 0-MD 1-quasi-New 2-CG
   NFREE  =      0    steps in history (QN), initial steepest desc. (CG)
   ISIF   =      2    stress and relaxation
   IWAVPR =     11    prediction:  0-non 1-charg 2-wave 3-comb
   ISYM   =      2    0-nonsym 1-usesym 2-fastsym
   LCORR  =      T    Harris-Foulkes like correction to forces

   POTIM  = 0.2500    time-step for ionic-motion
   TEIN   =    0.0    initial temperature
   TEBEG  =    0.0;   TEEND  =   0.0 temperature during run
   SMASS  =  -3.00    Nose mass-parameter (am)
   estimated Nose-frequenzy (Omega)   =  0.10E-29 period in steps =****** mass=  -0.237E-26a.u.
   SCALEE = 1.0000    scale energy and forces
   NPACO  =    256;   APACO  = 16.0  distance and # of slots for P.C.
   PSTRESS=    0.0 pullay stress

  Mass of Ions in am
   POMASS = 196.97
  Ionic Valenz
   ZVAL   =  11.00
  Atomic Wigner-Seitz radii
   RWIGS  =  -1.00
  virtual crystal weights 
   VCA    =   1.00
   NELECT =     528.0000    total number of electrons
   NUPDOWN=      -1.0000    fix difference up-down

 DOS related values:
   EMIN   =  10.00;   EMAX   =-10.00  energy-range for DOS
   EFERMI =   0.00
   ISMEAR =     0;   SIGMA  =   0.03  broadening in eV -4-tet -1-fermi 0-gaus

 Electronic relaxation 2 (details)
   IALGO  =     68    algorithm
   LDIAG  =      T    sub-space diagonalisation (order eigenvalues)
   LSUBROT=      T    optimize rotation matrix (better conditioning)
   TURBO    =      0    0=normal 1=particle mesh
   IRESTART =      0    0=no restart 2=restart with 2 vectors
   NREBOOT  =      0    no. of reboots
   NMIN     =      0    reboot dimension
   EREF     =   0.00    reference energy to select bands
   IMIX   =      4    mixing-type and parameters
     AMIX     =   0.40;   BMIX     =  1.00
     AMIX_MAG =   1.60;   BMIX_MAG =  1.00
     AMIN     =   0.10
     WC   =   100.;   INIMIX=   1;  MIXPRE=   1;  MAXMIX= -45

 Intra band minimization:
   WEIMIN = 0.0010     energy-eigenvalue tresh-hold
   EBREAK =  0.87E-09  absolut break condition
   DEPER  =   0.30     relativ break condition  

   TIME   =   0.40     timestep for ELM

  volume/ion in A,a.u.               =      37.40       252.37
  Fermi-wavevector in a.u.,A,eV,Ry     =   1.088748  2.057435 16.127968  1.185372
  Thomas-Fermi vector in A             =   2.224936
 
 Write flags
   LWAVE  =      F    write WAVECAR
   LCHARG =      F    write CHGCAR
   LVTOT  =      F    write LOCPOT, total local potential
   LVHAR  =      F    write LOCPOT, Hartree potential only
   LELF   =      F    write electronic localiz. function (ELF)
   LORBIT =      0    0 simple, 1 ext, 2 COOP (PROOUT)


 Dipole corrections
   LMONO  =      F    monopole corrections only (constant potential shift)
   LDIPOL =      T    correct potential (dipole corrections)
   IDIPOL =      3    1-x, 2-y, 3-z, 4-all directions 
   EPSILON=  1.0000000 bulk dielectric constant

 Exchange correlation treatment:
   GGA     =    PE    GGA type
   LEXCH   =     8    internal setting for exchange type
   VOSKOWN=      0    Vosko Wilk Nusair interpolation
   LHFCALC =     F    Hartree Fock is set to
   LHFONE  =     F    Hartree Fock one center treatment
   AEXX    =    0.0000 exact exchange contribution

 Linear response parameters
   LEPSILON=     F    determine dielectric tensor
   LRPA    =     F    only Hartree local field effects (RPA)
   LNABLA  =     F    use nabla operator in PAW spheres
   LVEL    =     F    velocity operator in full k-point grid
   LINTERFAST=   F  fast interpolation
   KINTER  =     0    interpolate to denser k-point grid
   CSHIFT  =0.1000    complex shift for real part using Kramers Kronig
   OMEGAMAX=  -1.0    maximum frequency
   DEG_THRESHOLD= 0.2000000E-02 threshold for treating states as degnerate
   RTIME   =    0.100 relaxation time in fs

 Orbital magnetization related:
   ORBITALMAG=     F  switch on orbital magnetization
   LCHIMAG   =     F  perturbation theory with respect to B field
   DQ        =  0.001000  dq finite difference perturbation B field



--------------------------------------------------------------------------------------------------------


 quasi-Newton-method for relaxation of ions
   using selective dynamics as specified on POSCAR
 charge density and potential will be updated during run
 non-spin polarized calculation
 RMM-DIIS sequential band-by-band and
  variant of blocked Davidson during initial phase
 perform sub-space diagonalisation
    before iterative eigenvector-optimisation
 modified Broyden-mixing scheme, WC =      100.0
 initial mixing is a Kerker type mixing with AMIX =  0.4000 and BMIX =      1.0000
 Hartree-type preconditioning will be used
 using additional bands           24
 real space projection scheme for non local part
 use partial core corrections
 calculate Harris-corrections to forces 
   (improved forces if not selfconsistent)
 use gradient corrections 
 use of overlap-Matrix (Vanderbilt PP)
 Gauss-broadening in eV      SIGMA  =   0.03


--------------------------------------------------------------------------------------------------------


  energy-cutoff  :      450.00
  volume of cell :     1795.05
      direct lattice vectors                 reciprocal lattice vectors
    10.180235717  0.000000000  0.000000000     0.098229553 -0.056712859  0.000000000
     5.090117859  8.816342748  0.000000000     0.000000000  0.113425717  0.000000000
     0.000000000  0.000000000 20.000000000     0.000000000  0.000000000  0.050000000

  length of vectors
    10.180235717 10.180235717 20.000000000     0.113425717  0.113425717  0.050000000


 
 k-points in units of 2pi/SCALE and weight: K-POINTS                                
   0.00000000  0.00000000  0.00000000       0.111
   0.03274318 -0.01890429  0.00000000       0.667
  -0.03274318  0.05671286  0.00000000       0.222
 
 k-points in reciprocal lattice and weights: K-POINTS                                
   0.00000000  0.00000000  0.00000000       0.111
   0.33333333  0.00000000  0.00000000       0.667
  -0.33333333  0.33333333  0.00000000       0.222
 
 position of ions in fractional coordinates (direct lattice) 
   0.00000000  0.00000000  0.00000000
   0.16666667  0.16666667  0.00000000
   0.33333333  0.33333333  0.00000000
   0.50000000  0.00000000  0.00000000
   0.66666667  0.16666667  0.00000000
   0.83333333  0.33333333  0.00000000
   0.00000000  0.50000000  0.00000000
   0.16666667  0.66666667  0.00000000
   0.33333333  0.83333333  0.00000000
   0.50000000  0.50000000  0.00000000
   0.66666667  0.66666667  0.00000000
   0.83333333  0.83333333  0.00000000
   0.16666667  0.00000000  0.11997523
   0.00000000  0.33333333  0.11997523
   0.33333333  0.16666667  0.11997523
   0.66666667  0.00000000  0.11997523
   0.50000000  0.33333333  0.11997523
   0.83333333  0.16666667  0.11997523
   0.16666667  0.50000000  0.11997523
   0.00000000  0.83333333  0.11997523
   0.33333333  0.66666667  0.11997523
   0.66666667  0.50000000  0.11997523
   0.50000000  0.83333333  0.11997523
   0.83333333  0.66666667  0.11997523
   0.00000000  0.16666667  0.23995046
   0.33333333  0.00000000  0.23995046
   0.16666667  0.33333333  0.23995046
   0.50000000  0.16666667  0.23995046
   0.83333333  0.00000000  0.23995046
   0.66666667  0.33333333  0.23995046
   0.00000000  0.66666667  0.23995046
   0.33333333  0.50000000  0.23995046
   0.16666667  0.83333333  0.23995046
   0.50000000  0.66666667  0.23995046
   0.83333333  0.50000000  0.23995046
   0.66666667  0.83333333  0.23995046
   0.00000000  0.00000000  0.35992569
   0.16666667  0.16666667  0.35992569
   0.33333333  0.33333333  0.35992569
   0.50000000  0.00000000  0.35992569
   0.66666667  0.16666667  0.35992569
   0.83333333  0.33333333  0.35992569
   0.00000000  0.50000000  0.35992569
   0.16666667  0.66666667  0.35992569
   0.33333333  0.83333333  0.35992569
   0.50000000  0.50000000  0.35992569
   0.66666667  0.66666667  0.35992569
   0.83333333  0.83333333  0.35992569
 
 position of ions in cartesian coordinates  (Angst):
   0.00000000  0.00000000  0.00000000
   2.54505893  1.46939046  0.00000000
   5.09011786  2.93878092  0.00000000
   5.09011786  0.00000000  0.00000000
   7.63517679  1.46939046  0.00000000
  10.18023572  2.93878092  0.00000000
   2.54505893  4.40817137  0.00000000
   5.09011786  5.87756183  0.00000000
   7.63517679  7.34695229  0.00000000
   7.63517679  4.40817137  0.00000000
  10.18023572  5.87756183  0.00000000
  12.72529465  7.34695229  0.00000000
   1.69670595  0.00000000  2.39950457
   1.69670595  2.93878092  2.39950457
   4.24176488  1.46939046  2.39950457
   6.78682381  0.00000000  2.39950457
   6.78682381  2.93878092  2.39950457
   9.33188274  1.46939046  2.39950457
   4.24176488  4.40817137  2.39950457
   4.24176488  7.34695229  2.39950457
   6.78682381  5.87756183  2.39950457
   9.33188274  4.40817137  2.39950457
   9.33188274  7.34695229  2.39950457
  11.87694167  5.87756183  2.39950457
   0.84835298  1.46939046  4.79900914
   3.39341191  0.00000000  4.79900914
   3.39341191  2.93878092  4.79900914
   5.93847084  1.46939046  4.79900914
   8.48352976  0.00000000  4.79900914
   8.48352976  2.93878092  4.79900914
   3.39341191  5.87756183  4.79900914
   5.93847084  4.40817137  4.79900914
   5.93847084  7.34695229  4.79900914
   8.48352976  5.87756183  4.79900914
  11.02858869  4.40817137  4.79900914
  11.02858869  7.34695229  4.79900914
   0.00000000  0.00000000  7.19851371
   2.54505893  1.46939046  7.19851371
   5.09011786  2.93878092  7.19851371
   5.09011786  0.00000000  7.19851371
   7.63517679  1.46939046  7.19851371
  10.18023572  2.93878092  7.19851371
   2.54505893  4.40817137  7.19851371
   5.09011786  5.87756183  7.19851371
   7.63517679  7.34695229  7.19851371
   7.63517679  4.40817137  7.19851371
  10.18023572  5.87756183  7.19851371
  12.72529465  7.34695229  7.19851371
 


--------------------------------------------------------------------------------------------------------


 k-point  1 :   0.0000 0.0000 0.0000  plane waves:   38907
 k-point  2 :   0.3333 0.0000 0.0000  plane waves:   38906
 k-point  3 :  -0.3333 0.3333 0.0000  plane waves:   38892

 maximum and minimum number of plane-waves per node :     38907    38892

 maximum number of plane-waves:     38907
 maximum index in each direction: 
   IXMAX=   17   IYMAX=   17   IZMAX=   34
   IXMIN=  -17   IYMIN=  -17   IZMIN=  -34

 WARNING: aliasing errors must be expected set NGX to  70 to avoid them
 WARNING: aliasing errors must be expected set NGY to  70 to avoid them
 WARNING: aliasing errors must be expected set NGZ to 138 to avoid them
 aliasing errors are usually negligible using standard VASP settings
 and one can safely disregard these warnings

 serial   3D FFT for wavefunctions
 parallel 3D FFT for charge:
    minimum data exchange during FFTs selected (reduces bandwidth)


 total amount of memory used by VASP on root node   251335. kBytes
========================================================================

   base      :      30000. kBytes
   nonlr-proj:      17482. kBytes
   fftplans  :      22592. kBytes
   grid      :      43063. kBytes
   one-center:        746. kBytes
   wavefun   :     137452. kBytes
 
 Broyden mixing: mesh for mixing (old mesh)
   NGX = 35   NGY = 35   NGZ = 69
  (NGX  =108   NGY  =108   NGZ  =216)
  gives a total of  84525 points

 initial charge density was supplied:
 charge density of overlapping atoms calculated
 number of electron     528.0000000 magnetization 
 keeping initial charge density in first step


--------------------------------------------------------------------------------------------------------


 Maximum index for non-local projection operator         2079
 Maximum index for augmentation-charges         2613 (set IRDMAX)


--------------------------------------------------------------------------------------------------------


 First call to EWALD:  gamma=   0.146
 Maximum number of real-space cells 4x 4x 2
 Maximum number of reciprocal cells 2x 2x 4

 FEWALD executed in parallel
    FEWALD:  cpu time    0.00: real time    0.00


----------------------------------------- Iteration    1(   1)  ---------------------------------------


    POTLOK:  cpu time    0.63: real time    0.63
    SETDIJ:  cpu time    0.04: real time    0.04
     EDDAV:  cpu time   38.13: real time   38.24
       DOS:  cpu time    0.00: real time    0.00
    --------------------------------------------
      LOOP:  cpu time   38.80: real time   38.91

 eigenvalue-minimisations  :  1728
 total energy-change (2. order) : 0.3444181E+04  (-0.2293793E+05)
 number of electron     528.0000000 magnetization 
 augmentation part      528.0000000 magnetization 

 DIPCOR: dipole corrections for dipol
 direction  3 min pos   145,
 dipolmoment           0.000000      0.000000     -0.000095 electrons x Angstroem
 Tr[quadrupol]     -9612.137679

 energy correction for charged system         0.000000 eV
 dipol+quadrupol energy correction            0.000000 eV
 added-field ion interaction          0.001349 eV  (added to PSCEN)


 Free energy of the ion-electron system (eV)
  ---------------------------------------------------
  alpha Z        PSCENC =      1495.05255884
  Ewald energy   TEWEN  =     87932.46543955
  -1/2 Hartree   DENC   =   -135104.74174443
  -exchange  EXHF       =         0.00000000
  -V(xc)+E(xc)   XCENC  =       732.42493921
  PAW double counting   =     41956.68016093   -40848.48647155
  entropy T*S    EENTRO =        -0.01267096
  eigenvalues    EBANDS =      2828.91217985
  atomic energy  EATOM  =     44451.88670910
  ---------------------------------------------------
  free energy    TOTEN  =      3444.18110054 eV

  energy without entropy =     3444.19377150  energy(sigma->0) =     3444.18743602


--------------------------------------------------------------------------------------------------------




----------------------------------------- Iteration    1(   2)  ---------------------------------------


     EDDAV:  cpu time   41.49: real time   41.59
       DOS:  cpu time    0.00: real time    0.00
    --------------------------------------------
      LOOP:  cpu time   41.49: real time   41.59

 eigenvalue-minimisations  :  1952
 total energy-change (2. order) :-0.3367127E+04  (-0.3217575E+04)
 number of electron     528.0000000 magnetization 
 augmentation part      528.0000000 magnetization 

 DIPCOR: dipole corrections for dipol
 direction  3 min pos   145,
 dipolmoment           0.000000      0.000000     -0.000095 electrons x Angstroem
 Tr[quadrupol]     -9612.137679

 energy correction for charged system         0.000000 eV
 dipol+quadrupol energy correction            0.000000 eV
 added-field ion interaction          0.001349 eV  (added to PSCEN)


 Free energy of the ion-electron system (eV)
  ---------------------------------------------------
  alpha Z        PSCENC =      1495.05255884
  Ewald energy   TEWEN  =     87932.46543955
  -1/2 Hartree   DENC   =   -135104.74174443
  -exchange  EXHF       =         0.00000000
  -V(xc)+E(xc)   XCENC  =       732.42493921
  PAW double counting   =     41956.68016093   -40848.48647155
  entropy T*S    EENTRO =        -0.01224570
  eigenvalues    EBANDS =      -538.21528080
  atomic energy  EATOM  =     44451.88670910
  ---------------------------------------------------
  free energy    TOTEN  =        77.05406515 eV

  energy without entropy =       77.06631085  energy(sigma->0) =       77.06018800


--------------------------------------------------------------------------------------------------------




----------------------------------------- Iteration    1(   3)  ---------------------------------------


     EDDAV:  cpu time   43.53: real time   43.66
       DOS:  cpu time    0.00: real time    0.00
    --------------------------------------------
      LOOP:  cpu time   43.53: real time   43.67

 eigenvalue-minimisations  :  2048
 total energy-change (2. order) :-0.2265792E+03  (-0.2161452E+03)
 number of electron     528.0000000 magnetization 
 augmentation part      528.0000000 magnetization 

 DIPCOR: dipole corrections for dipol
 direction  3 min pos   145,
 dipolmoment           0.000000      0.000000     -0.000095 electrons x Angstroem
 Tr[quadrupol]     -9612.137679

 energy correction for charged system         0.000000 eV
 dipol+quadrupol energy correction            0.000000 eV
 added-field ion interaction          0.001349 eV  (added to PSCEN)


 Free energy of the ion-electron system (eV)
  ---------------------------------------------------
  alpha Z        PSCENC =      1495.05255884
  Ewald energy   TEWEN  =     87932.46543955
  -1/2 Hartree   DENC   =   -135104.74174443
  -exchange  EXHF       =         0.00000000
  -V(xc)+E(xc)   XCENC  =       732.42493921
  PAW double counting   =     41956.68016093   -40848.48647155
  entropy T*S    EENTRO =        -0.00896077
  eigenvalues    EBANDS =      -764.79775776
  atomic energy  EATOM  =     44451.88670910
  ---------------------------------------------------
  free energy    TOTEN  =      -149.52512687 eV

  energy without entropy =     -149.51616611  energy(sigma->0) =     -149.52064649


--------------------------------------------------------------------------------------------------------




----------------------------------------- Iteration    1(   4)  ---------------------------------------


     EDDAV:  cpu time   47.30: real time   47.43
       DOS:  cpu time    0.00: real time    0.00
    --------------------------------------------
      LOOP:  cpu time   47.30: real time   47.43

 eigenvalue-minimisations  :  2272
 total energy-change (2. order) :-0.9012949E+01  (-0.8926253E+01)
 number of electron     528.0000000 magnetization 
 augmentation part      528.0000000 magnetization 

 DIPCOR: dipole corrections for dipol
 direction  3 min pos   145,
 dipolmoment           0.000000      0.000000     -0.000095 electrons x Angstroem
 Tr[quadrupol]     -9612.137679

 energy correction for charged system         0.000000 eV
 dipol+quadrupol energy correction            0.000000 eV
 added-field ion interaction          0.001349 eV  (added to PSCEN)


 Free energy of the ion-electron system (eV)
  ---------------------------------------------------
  alpha Z        PSCENC =      1495.05255884
  Ewald energy   TEWEN  =     87932.46543955
  -1/2 Hartree   DENC   =   -135104.74174443
  -exchange  EXHF       =         0.00000000
  -V(xc)+E(xc)   XCENC  =       732.42493921
  PAW double counting   =     41956.68016093   -40848.48647155
  entropy T*S    EENTRO =        -0.01028339
  eigenvalues    EBANDS =      -773.80938389
  atomic energy  EATOM  =     44451.88670910
  ---------------------------------------------------
  free energy    TOTEN  =      -158.53807563 eV

  energy without entropy =     -158.52779224  energy(sigma->0) =     -158.53293394


--------------------------------------------------------------------------------------------------------




----------------------------------------- Iteration    1(   5)  ---------------------------------------


     EDDAV:  cpu time   48.42: real time   48.53
       DOS:  cpu time    0.00: real time    0.00
    --------------------------------------------
      LOOP:  cpu time   48.42: real time   48.54

 eigenvalue-minimisations  :  2368
 total energy-change (2. order) :-0.1959985E+00  (-0.1957672E+00)
 number of electron     528.0000000 magnetization 
 augmentation part      528.0000000 magnetization 

 DIPCOR: dipole corrections for dipol
 direction  3 min pos   145,
 dipolmoment           0.000000      0.000000     -0.000095 electrons x Angstroem
 Tr[quadrupol]     -9612.137679

 energy correction for charged system         0.000000 eV
 dipol+quadrupol energy correction            0.000000 eV
 added-field ion interaction          0.001349 eV  (added to PSCEN)


 Free energy of the ion-electron system (eV)
  ---------------------------------------------------
  alpha Z        PSCENC =      1495.05255884
  Ewald energy   TEWEN  =     87932.46543955
  -1/2 Hartree   DENC   =   -135104.74174443
  -exchange  EXHF       =         0.00000000
  -V(xc)+E(xc)   XCENC  =       732.42493921
  PAW double counting   =     41956.68016093   -40848.48647155
  entropy T*S    EENTRO =        -0.01028581
  eigenvalues    EBANDS =      -774.00537993
  atomic energy  EATOM  =     44451.88670910
  ---------------------------------------------------
  free energy    TOTEN  =      -158.73407409 eV

  energy without entropy =     -158.72378828  energy(sigma->0) =     -158.72893119


--------------------------------------------------------------------------------------------------------




----------------------------------------- Iteration    1(   6)  ---------------------------------------


     EDDAV:  cpu time   48.86: real time   48.97
       DOS:  cpu time    0.00: real time    0.00
    --------------------------------------------
      LOOP:  cpu time   48.86: real time   48.98

 eigenvalue-minimisations  :  2368
 total energy-change (2. order) :-0.6485397E-02  (-0.6484044E-02)
 number of electron     528.0000000 magnetization 
 augmentation part      528.0000000 magnetization 

 DIPCOR: dipole corrections for dipol
 direction  3 min pos   145,
 dipolmoment           0.000000      0.000000     -0.000095 electrons x Angstroem
 Tr[quadrupol]     -9612.137679

 energy correction for charged system         0.000000 eV
 dipol+quadrupol energy correction            0.000000 eV
 added-field ion interaction          0.001349 eV  (added to PSCEN)


 Free energy of the ion-electron system (eV)
  ---------------------------------------------------
  alpha Z        PSCENC =      1495.05255884
  Ewald energy   TEWEN  =     87932.46543955
  -1/2 Hartree   DENC   =   -135104.74174443
  -exchange  EXHF       =         0.00000000
  -V(xc)+E(xc)   XCENC  =       732.42493921
  PAW double counting   =     41956.68016093   -40848.48647155
  entropy T*S    EENTRO =        -0.01028582
  eigenvalues    EBANDS =      -774.01186532
  atomic energy  EATOM  =     44451.88670910
  ---------------------------------------------------
  free energy    TOTEN  =      -158.74055949 eV

  energy without entropy =     -158.73027367  energy(sigma->0) =     -158.73541658


--------------------------------------------------------------------------------------------------------




----------------------------------------- Iteration    1(   7)  ---------------------------------------


     EDDAV:  cpu time   49.28: real time   49.41
       DOS:  cpu time    0.00: real time    0.00
    CHARGE:  cpu time    2.88: real time    2.89
    MIXING:  cpu time    0.02: real time    0.02
    --------------------------------------------
      LOOP:  cpu time   52.18: real time   52.32

 eigenvalue-minimisations  :  2384
 total energy-change (2. order) :-0.1738515E-03  (-0.1738384E-03)
 number of electron     527.9999328 magnetization 
 augmentation part      185.4879631 magnetization 

 DIPCOR: dipole corrections for dipol
 direction  3 min pos   145,
 dipolmoment           0.000000      0.000000     -0.000095 electrons x Angstroem
 Tr[quadrupol]     -9612.137679

 energy correction for charged system         0.000000 eV
 dipol+quadrupol energy correction            0.000000 eV
 added-field ion interaction          0.001349 eV  (added to PSCEN)


 Broyden mixing:
  rms(total) = 0.47814E+01    rms(broyden)= 0.47814E+01
  rms(prec ) = 0.48877E+01
  weight for this iteration     100.00

 Free energy of the ion-electron system (eV)
  ---------------------------------------------------
  alpha Z        PSCENC =      1495.05255884
  Ewald energy   TEWEN  =     87932.46543955
  -1/2 Hartree   DENC   =   -135104.74174443
  -exchange  EXHF       =         0.00000000
  -V(xc)+E(xc)   XCENC  =       732.42493921
  PAW double counting   =     41956.68016093   -40848.48647155
  entropy T*S    EENTRO =        -0.01028582
  eigenvalues    EBANDS =      -774.01203917
  atomic energy  EATOM  =     44451.88670910
  ---------------------------------------------------
  free energy    TOTEN  =      -158.74073334 eV

  energy without entropy =     -158.73044752  energy(sigma->0) =     -158.73559043


--------------------------------------------------------------------------------------------------------




----------------------------------------- Iteration    1(   8)  ---------------------------------------


    POTLOK:  cpu time    0.55: real time    0.55
    SETDIJ:  cpu time    0.04: real time    0.04
    EDDIAG:  cpu time    7.76: real time    7.79
  RMM-DIIS:  cpu time   19.35: real time   19.40
    ORTHCH:  cpu time    1.16: real time    1.17
       DOS:  cpu time    0.00: real time    0.00
    CHARGE:  cpu time    3.04: real time    3.05
    MIXING:  cpu time    0.02: real time    0.01
    --------------------------------------------
      LOOP:  cpu time   31.91: real time   32.01

 eigenvalue-minimisations  :  1728
 total energy-change (2. order) : 0.1141787E+02  (-0.3889195E+01)
 number of electron     527.9999301 magnetization 
 augmentation part      191.8969366 magnetization 

 DIPCOR: dipole corrections for dipol
 direction  3 min pos   151,
 dipolmoment           0.000000      0.000000      0.037513 electrons x Angstroem
 Tr[quadrupol]     -9608.237450

 energy correction for charged system         0.000000 eV
 dipol+quadrupol energy correction           -0.000071 eV
 added-field ion interaction          0.578368 eV  (added to PSCEN)


 Broyden mixing:
  rms(total) = 0.33356E+01    rms(broyden)= 0.33356E+01
  rms(prec ) = 0.33469E+01
  weight for this iteration     100.00

 eigenvalues of (default mixing * dielectric matrix)
  average eigenvalue GAMMA=   1.8410
  1.8410

 Free energy of the ion-electron system (eV)
  ---------------------------------------------------
  alpha Z        PSCENC =      1495.62950707
  Ewald energy   TEWEN  =     87932.46543955
  -1/2 Hartree   DENC   =   -134614.66673073
  -exchange  EXHF       =         0.00000000
  -V(xc)+E(xc)   XCENC  =       715.81973516
  PAW double counting   =     44177.10601685   -43121.74235690
  entropy T*S    EENTRO =        -0.02117104
  eigenvalues    EBANDS =     -1183.80001347
  atomic energy  EATOM  =     44451.88670910
  ---------------------------------------------------
  free energy    TOTEN  =      -147.32286441 eV

  energy without entropy =     -147.30169337  energy(sigma->0) =     -147.31227889


--------------------------------------------------------------------------------------------------------




----------------------------------------- Iteration    1(   9)  ---------------------------------------


    POTLOK:  cpu time    0.56: real time    0.57
    SETDIJ:  cpu time    0.04: real time    0.04
    EDDIAG:  cpu time    7.73: real time    7.75
  RMM-DIIS:  cpu time   19.15: real time   19.19
    ORTHCH:  cpu time    1.13: real time    1.14
       DOS:  cpu time    0.00: real time    0.00
    CHARGE:  cpu time    2.87: real time    2.88
    MIXING:  cpu time    0.02: real time    0.01
    --------------------------------------------
      LOOP:  cpu time   31.50: real time   31.58

 eigenvalue-minimisations  :  1730
 total energy-change (2. order) : 0.2994003E+00  (-0.7284419E+00)
 number of electron     527.9999296 magnetization 
 augmentation part      193.7882064 magnetization 

 DIPCOR: dipole corrections for dipol
 direction  3 min pos   150,
 dipolmoment           0.000000      0.000000     -0.099283 electrons x Angstroem
 Tr[quadrupol]     -9610.343475

 energy correction for charged system         0.000000 eV
 dipol+quadrupol energy correction           -0.000497 eV
 added-field ion interaction         -1.041360 eV  (added to PSCEN)


 Broyden mixing:
  rms(total) = 0.13199E+01    rms(broyden)= 0.13199E+01
  rms(prec ) = 0.13410E+01
  weight for this iteration     100.00

 eigenvalues of (default mixing * dielectric matrix)
  average eigenvalue GAMMA=   1.7656
  1.1297  2.4015

 Free energy of the ion-electron system (eV)
  ---------------------------------------------------
  alpha Z        PSCENC =      1494.00935261
  Ewald energy   TEWEN  =     87932.46543955
  -1/2 Hartree   DENC   =   -134527.26874119
  -exchange  EXHF       =         0.00000000
  -V(xc)+E(xc)   XCENC  =       709.22502093
  PAW double counting   =     46914.54849802   -45899.78683896
  entropy T*S    EENTRO =        -0.02930644
  eigenvalues    EBANDS =     -1222.07359769
  atomic energy  EATOM  =     44451.88670910
  ---------------------------------------------------
  free energy    TOTEN  =      -147.02346408 eV

  energy without entropy =     -146.99415764  energy(sigma->0) =     -147.00881086


--------------------------------------------------------------------------------------------------------




----------------------------------------- Iteration    1(  10)  ---------------------------------------


    POTLOK:  cpu time    0.58: real time    0.58
    SETDIJ:  cpu time    0.04: real time    0.04
    EDDIAG:  cpu time    7.66: real time    7.68
  RMM-DIIS:  cpu time   19.39: real time   19.45
    ORTHCH:  cpu time    1.26: real time    1.27
       DOS:  cpu time    0.00: real time    0.00
    CHARGE:  cpu time    2.89: real time    2.90
    MIXING:  cpu time    0.01: real time    0.01
    --------------------------------------------
      LOOP:  cpu time   31.84: real time   31.94

 eigenvalue-minimisations  :  1739
 total energy-change (2. order) :-0.4501811E+00  (-0.2459920E+00)
 number of electron     527.9999294 magnetization 
 augmentation part      193.7805777 magnetization 

 DIPCOR: dipole corrections for dipol
 direction  3 min pos   152,
 dipolmoment           0.000000      0.000000      0.370241 electrons x Angstroem
 Tr[quadrupol]     -9607.959570

 energy correction for charged system         0.000000 eV
 dipol+quadrupol energy correction           -0.006910 eV
 added-field ion interaction          7.533117 eV  (added to PSCEN)


 Broyden mixing:
  rms(total) = 0.49973E+00    rms(broyden)= 0.49972E+00
  rms(prec ) = 0.73452E+00
  weight for this iteration     100.00

 eigenvalues of (default mixing * dielectric matrix)
  average eigenvalue GAMMA=   1.4645
  2.5553  1.2324  0.6059

 Free energy of the ion-electron system (eV)
  ---------------------------------------------------
  alpha Z        PSCENC =      1502.57741669
  Ewald energy   TEWEN  =     87932.46543955
  -1/2 Hartree   DENC   =   -134462.63269651
  -exchange  EXHF       =         0.00000000
  -V(xc)+E(xc)   XCENC  =       709.23133332
  PAW double counting   =     48145.20655944   -47144.30512351
  entropy T*S    EENTRO =        -0.02139894
  eigenvalues    EBANDS =     -1281.88188428
  atomic energy  EATOM  =     44451.88670910
  ---------------------------------------------------
  free energy    TOTEN  =      -147.47364514 eV

  energy without entropy =     -147.45224620  energy(sigma->0) =     -147.46294567


--------------------------------------------------------------------------------------------------------




----------------------------------------- Iteration    1(  11)  ---------------------------------------


    POTLOK:  cpu time    0.55: real time    0.55
    SETDIJ:  cpu time    0.04: real time    0.04
    EDDIAG:  cpu time    7.67: real time    7.69
  RMM-DIIS:  cpu time   19.19: real time   19.25
    ORTHCH:  cpu time    1.14: real time    1.14
       DOS:  cpu time    0.00: real time    0.00
    CHARGE:  cpu time    2.92: real time    2.92
    MIXING:  cpu time    0.01: real time    0.01
    --------------------------------------------
      LOOP:  cpu time   31.51: real time   31.60

 eigenvalue-minimisations  :  1728
 total energy-change (2. order) :-0.2032259E+00  (-0.2173308E+00)
 number of electron     527.9999296 magnetization 
 augmentation part      193.5439952 magnetization 

 DIPCOR: dipole corrections for dipol
 direction  3 min pos   150,
 dipolmoment           0.000000      0.000000     -0.461345 electrons x Angstroem
 Tr[quadrupol]     -9608.573165

 energy correction for charged system         0.000000 eV
 dipol+quadrupol energy correction           -0.010729 eV
 added-field ion interaction         -4.838938 eV  (added to PSCEN)


 Broyden mixing:
  rms(total) = 0.41825E+00    rms(broyden)= 0.41824E+00
  rms(prec ) = 0.76728E+00
  weight for this iteration     100.00

 eigenvalues of (default mixing * dielectric matrix)
  average eigenvalue GAMMA=   1.1800
  2.5647  1.2503  0.6400  0.2653

 Free energy of the ion-electron system (eV)
  ---------------------------------------------------
  alpha Z        PSCENC =      1490.20154293
  Ewald energy   TEWEN  =     87932.46543955
  -1/2 Hartree   DENC   =   -134499.56881579
  -exchange  EXHF       =         0.00000000
  -V(xc)+E(xc)   XCENC  =       709.54525195
  PAW double counting   =     48300.32693091   -47300.38222517
  entropy T*S    EENTRO =        -0.02498930
  eigenvalues    EBANDS =     -1232.12671524
  atomic energy  EATOM  =     44451.88670910
  ---------------------------------------------------
  free energy    TOTEN  =      -147.67687105 eV

  energy without entropy =     -147.65188175  energy(sigma->0) =     -147.66437640


--------------------------------------------------------------------------------------------------------




----------------------------------------- Iteration    1(  12)  ---------------------------------------


    POTLOK:  cpu time    0.53: real time    0.53
    SETDIJ:  cpu time    0.04: real time    0.04
    EDDIAG:  cpu time    7.66: real time    7.68
  RMM-DIIS:  cpu time   19.31: real time   19.39
    ORTHCH:  cpu time    1.22: real time    1.23
       DOS:  cpu time    0.00: real time    0.00
    CHARGE:  cpu time    2.86: real time    2.86
    MIXING:  cpu time    0.02: real time    0.02
    --------------------------------------------
      LOOP:  cpu time   31.63: real time   31.75

 eigenvalue-minimisations  :  1739
 total energy-change (2. order) : 0.9723249E+00  (-0.4947912E-01)
 number of electron     527.9999296 magnetization 
 augmentation part      193.4625200 magnetization 

 DIPCOR: dipole corrections for dipol
 direction  3 min pos   149,
 dipolmoment           0.000000      0.000000     -0.009276 electrons x Angstroem
 Tr[quadrupol]     -9609.163998

 energy correction for charged system         0.000000 eV
 dipol+quadrupol energy correction           -0.000004 eV
 added-field ion interaction         -0.051576 eV  (added to PSCEN)


 Broyden mixing:
  rms(total) = 0.56851E-01    rms(broyden)= 0.56837E-01
  rms(prec ) = 0.61018E-01
  weight for this iteration     100.00

 eigenvalues of (default mixing * dielectric matrix)
  average eigenvalue GAMMA=   1.1136
  2.4697  1.2649  0.8566  0.7027  0.2743

 Free energy of the ion-electron system (eV)
  ---------------------------------------------------
  alpha Z        PSCENC =      1494.99962947
  Ewald energy   TEWEN  =     87932.46543955
  -1/2 Hartree   DENC   =   -134514.43210047
  -exchange  EXHF       =         0.00000000
  -V(xc)+E(xc)   XCENC  =       709.64823098
  PAW double counting   =     48315.78749475   -47315.77249242
  entropy T*S    EENTRO =        -0.02502797
  eigenvalues    EBANDS =     -1221.26242909
  atomic energy  EATOM  =     44451.88670910
  ---------------------------------------------------
  free energy    TOTEN  =      -146.70454611 eV

  energy without entropy =     -146.67951814  energy(sigma->0) =     -146.69203212


--------------------------------------------------------------------------------------------------------




----------------------------------------- Iteration    1(  13)  ---------------------------------------


    POTLOK:  cpu time    0.54: real time    0.54
    SETDIJ:  cpu time    0.04: real time    0.04
    EDDIAG:  cpu time    7.67: real time    7.69
  RMM-DIIS:  cpu time   20.58: real time   20.63
    ORTHCH:  cpu time    1.13: real time    1.13
       DOS:  cpu time    0.00: real time    0.00
    CHARGE:  cpu time    2.92: real time    2.92
    MIXING:  cpu time    0.01: real time    0.02
    --------------------------------------------
      LOOP:  cpu time   32.89: real time   32.97

 eigenvalue-minimisations  :  1885
 total energy-change (2. order) :-0.6146536E-03  (-0.2444505E-02)
 number of electron     527.9999296 magnetization 
 augmentation part      193.4474934 magnetization 

 DIPCOR: dipole corrections for dipol
 direction  3 min pos   155,
 dipolmoment           0.000000      0.000000     -0.010172 electrons x Angstroem
 Tr[quadrupol]     -9609.153277

 energy correction for charged system         0.000000 eV
 dipol+quadrupol energy correction           -0.000005 eV
 added-field ion interaction         -0.357384 eV  (added to PSCEN)


 Broyden mixing:
  rms(total) = 0.19950E-01    rms(broyden)= 0.19948E-01
  rms(prec ) = 0.21549E-01
  weight for this iteration     100.00

 eigenvalues of (default mixing * dielectric matrix)
  average eigenvalue GAMMA=   1.2578
  2.2594  2.2594  1.2563  0.8472  0.6506  0.2737

 Free energy of the ion-electron system (eV)
  ---------------------------------------------------
  alpha Z        PSCENC =      1494.69382065
  Ewald energy   TEWEN  =     87932.46543955
  -1/2 Hartree   DENC   =   -134516.75653324
  -exchange  EXHF       =         0.00000000
  -V(xc)+E(xc)   XCENC  =       709.72582821
  PAW double counting   =     48246.71621210   -47245.84913624
  entropy T*S    EENTRO =        -0.02504948
  eigenvalues    EBANDS =     -1219.56245140
  atomic energy  EATOM  =     44451.88670910
  ---------------------------------------------------
  free energy    TOTEN  =      -146.70516076 eV

  energy without entropy =     -146.68011128  energy(sigma->0) =     -146.69263602


--------------------------------------------------------------------------------------------------------




----------------------------------------- Iteration    1(  14)  ---------------------------------------


    POTLOK:  cpu time    0.54: real time    0.54
    SETDIJ:  cpu time    0.04: real time    0.04
    EDDIAG:  cpu time    7.72: real time    7.73
  RMM-DIIS:  cpu time   20.17: real time   20.22
    ORTHCH:  cpu time    1.18: real time    1.18
       DOS:  cpu time    0.00: real time    0.00
    CHARGE:  cpu time    2.94: real time    2.95
    MIXING:  cpu time    0.02: real time    0.02
    --------------------------------------------
      LOOP:  cpu time   32.59: real time   32.68

 eigenvalue-minimisations  :  1823
 total energy-change (2. order) :-0.1382389E-02  (-0.4191245E-03)
 number of electron     527.9999296 magnetization 
 augmentation part      193.4411961 magnetization 

 DIPCOR: dipole corrections for dipol
 direction  3 min pos   146,
 dipolmoment           0.000000      0.000000      0.017950 electrons x Angstroem
 Tr[quadrupol]     -9609.146990

 energy correction for charged system         0.000000 eV
 dipol+quadrupol energy correction           -0.000016 eV
 added-field ion interaction         -0.165615 eV  (added to PSCEN)


 Broyden mixing:
  rms(total) = 0.16968E-01    rms(broyden)= 0.16967E-01
  rms(prec ) = 0.25963E-01
  weight for this iteration     100.00

 eigenvalues of (default mixing * dielectric matrix)
  average eigenvalue GAMMA=   1.2682
  2.5332  2.1542  1.3386  1.1091  0.7824  0.6876  0.2727

 Free energy of the ion-electron system (eV)
  ---------------------------------------------------
  alpha Z        PSCENC =      1494.88557820
  Ewald energy   TEWEN  =     87932.46543955
  -1/2 Hartree   DENC   =   -134518.69694694
  -exchange  EXHF       =         0.00000000
  -V(xc)+E(xc)   XCENC  =       709.76805907
  PAW double counting   =     48203.88679331   -47202.54802679
  entropy T*S    EENTRO =        -0.02512760
  eigenvalues    EBANDS =     -1218.32902105
  atomic energy  EATOM  =     44451.88670910
  ---------------------------------------------------
  free energy    TOTEN  =      -146.70654315 eV

  energy without entropy =     -146.68141555  energy(sigma->0) =     -146.69397935


--------------------------------------------------------------------------------------------------------




----------------------------------------- Iteration    1(  15)  ---------------------------------------


    POTLOK:  cpu time    0.54: real time    0.54
    SETDIJ:  cpu time    0.04: real time    0.04
    EDDIAG:  cpu time    7.93: real time    7.95
  RMM-DIIS:  cpu time   19.56: real time   19.60
    ORTHCH:  cpu time    1.13: real time    1.14
       DOS:  cpu time    0.00: real time    0.00
    CHARGE:  cpu time    2.92: real time    2.92
    MIXING:  cpu time    0.02: real time    0.02
    --------------------------------------------
      LOOP:  cpu time   32.14: real time   32.21

 eigenvalue-minimisations  :  1739
 total energy-change (2. order) : 0.6029217E-03  (-0.1820524E-03)
 number of electron     527.9999296 magnetization 
 augmentation part      193.4378829 magnetization 

 DIPCOR: dipole corrections for dipol
 direction  3 min pos   152,
 dipolmoment           0.000000      0.000000     -0.011266 electrons x Angstroem
 Tr[quadrupol]     -9609.179576

 energy correction for charged system         0.000000 eV
 dipol+quadrupol energy correction           -0.000006 eV
 added-field ion interaction         -0.229224 eV  (added to PSCEN)


 Broyden mixing:
  rms(total) = 0.51773E-02    rms(broyden)= 0.51771E-02
  rms(prec ) = 0.10119E-01
  weight for this iteration     100.00

 eigenvalues of (default mixing * dielectric matrix)
  average eigenvalue GAMMA=   1.2192
  2.5236  1.8123  1.6976  1.2101  0.2726  0.7700  0.7700  0.6977

 Free energy of the ion-electron system (eV)
  ---------------------------------------------------
  alpha Z        PSCENC =      1494.82197874
  Ewald energy   TEWEN  =     87932.46543955
  -1/2 Hartree   DENC   =   -134520.34705645
  -exchange  EXHF       =         0.00000000
  -V(xc)+E(xc)   XCENC  =       709.76280061
  PAW double counting   =     48201.94153119   -47200.63458431
  entropy T*S    EENTRO =        -0.02606605
  eigenvalues    EBANDS =     -1216.57669259
  atomic energy  EATOM  =     44451.88670910
  ---------------------------------------------------
  free energy    TOTEN  =      -146.70594023 eV

  energy without entropy =     -146.67987417  energy(sigma->0) =     -146.69290720


--------------------------------------------------------------------------------------------------------




----------------------------------------- Iteration    1(  16)  ---------------------------------------


    POTLOK:  cpu time    0.54: real time    0.54
    SETDIJ:  cpu time    0.04: real time    0.04
    EDDIAG:  cpu time    7.69: real time    7.70
  RMM-DIIS:  cpu time   19.70: real time   19.75
    ORTHCH:  cpu time    1.20: real time    1.20
       DOS:  cpu time    0.00: real time    0.00
    CHARGE:  cpu time    3.03: real time    3.04
    MIXING:  cpu time    0.02: real time    0.02
    --------------------------------------------
      LOOP:  cpu time   32.21: real time   32.30

 eigenvalue-minimisations  :  1778
 total energy-change (2. order) : 0.1021922E-03  (-0.7406273E-05)
 number of electron     527.9999296 magnetization 
 augmentation part      193.4399121 magnetization 

 DIPCOR: dipole corrections for dipol
 direction  3 min pos   155,
 dipolmoment           0.000000      0.000000     -0.010914 electrons x Angstroem
 Tr[quadrupol]     -9609.166205

 energy correction for charged system         0.000000 eV
 dipol+quadrupol energy correction           -0.000006 eV
 added-field ion interaction         -0.383430 eV  (added to PSCEN)


 Broyden mixing:
  rms(total) = 0.32354E-02    rms(broyden)= 0.32354E-02
  rms(prec ) = 0.59840E-02
  weight for this iteration     100.00

 eigenvalues of (default mixing * dielectric matrix)
  average eigenvalue GAMMA=   1.3441
  2.8343  2.5339  1.5638  1.5046  0.2726  1.0970  0.8474  0.7214  0.7214

 Free energy of the ion-electron system (eV)
  ---------------------------------------------------
  alpha Z        PSCENC =      1494.66777339
  Ewald energy   TEWEN  =     87932.46543955
  -1/2 Hartree   DENC   =   -134520.14182177
  -exchange  EXHF       =         0.00000000
  -V(xc)+E(xc)   XCENC  =       709.75991956
  PAW double counting   =     48200.49166556   -47199.19223919
  entropy T*S    EENTRO =        -0.02590819
  eigenvalues    EBANDS =     -1216.61737605
  atomic energy  EATOM  =     44451.88670910
  ---------------------------------------------------
  free energy    TOTEN  =      -146.70583803 eV

  energy without entropy =     -146.67992984  energy(sigma->0) =     -146.69288394


--------------------------------------------------------------------------------------------------------




----------------------------------------- Iteration    1(  17)  ---------------------------------------


    POTLOK:  cpu time    0.57: real time    0.57
    SETDIJ:  cpu time    0.04: real time    0.04
    EDDIAG:  cpu time    7.67: real time    7.68
  RMM-DIIS:  cpu time   19.06: real time   19.11
    ORTHCH:  cpu time    1.15: real time    1.16
       DOS:  cpu time    0.00: real time    0.00
    CHARGE:  cpu time    2.91: real time    2.92
    MIXING:  cpu time    0.02: real time    0.02
    --------------------------------------------
      LOOP:  cpu time   31.42: real time   31.50

 eigenvalue-minimisations  :  1728
 total energy-change (2. order) :-0.3622120E-03  (-0.6700981E-04)
 number of electron     527.9999296 magnetization 
 augmentation part      193.4402711 magnetization 

 DIPCOR: dipole corrections for dipol
 direction  3 min pos   147,
 dipolmoment           0.000000      0.000000      0.010984 electrons x Angstroem
 Tr[quadrupol]     -9609.146440

 energy correction for charged system         0.000000 eV
 dipol+quadrupol energy correction           -0.000006 eV
 added-field ion interaction         -0.047209 eV  (added to PSCEN)


 Broyden mixing:
  rms(total) = 0.56264E-02    rms(broyden)= 0.56263E-02
  rms(prec ) = 0.12880E-01
  weight for this iteration     100.00

 eigenvalues of (default mixing * dielectric matrix)
  average eigenvalue GAMMA=   1.2652
  2.6074  2.6074  1.9241  1.3526  1.0777  0.2726  0.7967  0.6849  0.6641  0.6641

 Free energy of the ion-electron system (eV)
  ---------------------------------------------------
  alpha Z        PSCENC =      1495.00399473
  Ewald energy   TEWEN  =     87932.46543955
  -1/2 Hartree   DENC   =   -134520.27256535
  -exchange  EXHF       =         0.00000000
  -V(xc)+E(xc)   XCENC  =       709.76478676
  PAW double counting   =     48192.55972908   -47191.21087126
  entropy T*S    EENTRO =        -0.02581953
  eigenvalues    EBANDS =     -1216.87760333
  atomic energy  EATOM  =     44451.88670910
  ---------------------------------------------------
  free energy    TOTEN  =      -146.70620025 eV

  energy without entropy =     -146.68038071  energy(sigma->0) =     -146.69329048


--------------------------------------------------------------------------------------------------------




----------------------------------------- Iteration    1(  18)  ---------------------------------------


    POTLOK:  cpu time    0.55: real time    0.55
    SETDIJ:  cpu time    0.04: real time    0.04
    EDDIAG:  cpu time    7.68: real time    7.70
  RMM-DIIS:  cpu time   17.91: real time   17.96
    ORTHCH:  cpu time    1.16: real time    1.16
       DOS:  cpu time    0.00: real time    0.00
    CHARGE:  cpu time    2.91: real time    2.92
    MIXING:  cpu time    0.02: real time    0.02
    --------------------------------------------
      LOOP:  cpu time   30.26: real time   30.35

 eigenvalue-minimisations  :  1566
 total energy-change (2. order) : 0.1072719E-03  (-0.2269769E-05)
 number of electron     527.9999296 magnetization 
 augmentation part      193.4405043 magnetization 

 DIPCOR: dipole corrections for dipol
 direction  3 min pos   143,
 dipolmoment           0.000000      0.000000      0.012078 electrons x Angstroem
 Tr[quadrupol]     -9609.137630

 energy correction for charged system         0.000000 eV
 dipol+quadrupol energy correction           -0.000007 eV
 added-field ion interaction         -0.290036 eV  (added to PSCEN)


 Broyden mixing:
  rms(total) = 0.45711E-02    rms(broyden)= 0.45711E-02
  rms(prec ) = 0.10556E-01
  weight for this iteration     100.00

 eigenvalues of (default mixing * dielectric matrix)
  average eigenvalue GAMMA=   1.2981
  2.8747  2.5574  1.9119  1.3794  0.9510  0.9510  0.2726  1.0870  0.8568  0.7187
  0.7187

 Free energy of the ion-electron system (eV)
  ---------------------------------------------------
  alpha Z        PSCENC =      1494.76116651
  Ewald energy   TEWEN  =     87932.46543955
  -1/2 Hartree   DENC   =   -134520.24725267
  -exchange  EXHF       =         0.00000000
  -V(xc)+E(xc)   XCENC  =       709.76455781
  PAW double counting   =     48192.46921099   -47191.12093889
  entropy T*S    EENTRO =        -0.02581468
  eigenvalues    EBANDS =     -1216.65917070
  atomic energy  EATOM  =     44451.88670910
  ---------------------------------------------------
  free energy    TOTEN  =      -146.70609297 eV

  energy without entropy =     -146.68027830  energy(sigma->0) =     -146.69318564


--------------------------------------------------------------------------------------------------------




----------------------------------------- Iteration    1(  19)  ---------------------------------------


    POTLOK:  cpu time    0.60: real time    0.60
    SETDIJ:  cpu time    0.04: real time    0.04
    EDDIAG:  cpu time    7.95: real time    7.96
  RMM-DIIS:  cpu time   19.67: real time   19.72
    ORTHCH:  cpu time    1.58: real time    1.59
       DOS:  cpu time    0.00: real time    0.00
    CHARGE:  cpu time    4.54: real time    4.56
    MIXING:  cpu time    0.03: real time    0.03
    --------------------------------------------
      LOOP:  cpu time   34.40: real time   34.49

 eigenvalue-minimisations  :  1727
 total energy-change (2. order) : 0.2010404E-03  (-0.3728020E-04)
 number of electron     527.9999296 magnetization 
 augmentation part      193.4403902 magnetization 

 DIPCOR: dipole corrections for dipol
 direction  3 min pos   150,
 dipolmoment           0.000000      0.000000     -0.003421 electrons x Angstroem
 Tr[quadrupol]     -9609.135863

 energy correction for charged system         0.000000 eV
 dipol+quadrupol energy correction           -0.000001 eV
 added-field ion interaction         -0.035880 eV  (added to PSCEN)


 Broyden mixing:
  rms(total) = 0.16868E-02    rms(broyden)= 0.16866E-02
  rms(prec ) = 0.35555E-02
  weight for this iteration     100.00

 eigenvalues of (default mixing * dielectric matrix)
  average eigenvalue GAMMA=   1.2648
  2.6873  2.2613  2.0357  1.5876  0.2726  1.2589  1.0878  0.7184  0.7788  0.7788
  0.8550  0.8550

 Free energy of the ion-electron system (eV)
  ---------------------------------------------------
  alpha Z        PSCENC =      1495.01532904
  Ewald energy   TEWEN  =     87932.46543955
  -1/2 Hartree   DENC   =   -134520.24256696
  -exchange  EXHF       =         0.00000000
  -V(xc)+E(xc)   XCENC  =       709.76508938
  PAW double counting   =     48192.18192102   -47190.83355438
  entropy T*S    EENTRO =        -0.02582690
  eigenvalues    EBANDS =     -1216.91843179
  atomic energy  EATOM  =     44451.88670910
  ---------------------------------------------------
  free energy    TOTEN  =      -146.70589193 eV

  energy without entropy =     -146.68006503  energy(sigma->0) =     -146.69297848


--------------------------------------------------------------------------------------------------------




----------------------------------------- Iteration    1(  20)  ---------------------------------------


    POTLOK:  cpu time    0.54: real time    0.54
    SETDIJ:  cpu time    0.04: real time    0.04
    EDDIAG:  cpu time    8.23: real time    8.26
  RMM-DIIS:  cpu time   17.43: real time   17.48
    ORTHCH:  cpu time    1.15: real time    1.15
       DOS:  cpu time    0.00: real time    0.00
    CHARGE:  cpu time    2.90: real time    2.90
    MIXING:  cpu time    0.02: real time    0.02
    --------------------------------------------
      LOOP:  cpu time   30.31: real time   30.40

 eigenvalue-minimisations  :  1540
 total energy-change (2. order) : 0.2033259E-04  (-0.1214716E-05)
 number of electron     527.9999296 magnetization 
 augmentation part      193.4399144 magnetization 

 DIPCOR: dipole corrections for dipol
 direction  3 min pos   145,
 dipolmoment           0.000000      0.000000      0.002036 electrons x Angstroem
 Tr[quadrupol]     -9609.133354

 energy correction for charged system         0.000000 eV
 dipol+quadrupol energy correction            0.000000 eV
 added-field ion interaction         -0.028820 eV  (added to PSCEN)


 Broyden mixing:
  rms(total) = 0.24226E-03    rms(broyden)= 0.24225E-03
  rms(prec ) = 0.34187E-03
  weight for this iteration     100.00

 eigenvalues of (default mixing * dielectric matrix)
  average eigenvalue GAMMA=   1.2590
  2.8067  2.5235  1.8953  1.8953  1.2892  0.7731  0.7731  0.2726  0.8800  0.8800
  0.8977  0.7720  0.7085

 Free energy of the ion-electron system (eV)
  ---------------------------------------------------
  alpha Z        PSCENC =      1495.02238977
  Ewald energy   TEWEN  =     87932.46543955
  -1/2 Hartree   DENC   =   -134520.27573131
  -exchange  EXHF       =         0.00000000
  -V(xc)+E(xc)   XCENC  =       709.76533856
  PAW double counting   =     48192.86774779   -47191.52571763
  entropy T*S    EENTRO =        -0.02587852
  eigenvalues    EBANDS =     -1216.88616891
  atomic energy  EATOM  =     44451.88670910
  ---------------------------------------------------
  free energy    TOTEN  =      -146.70587160 eV

  energy without entropy =     -146.67999308  energy(sigma->0) =     -146.69293234


--------------------------------------------------------------------------------------------------------




----------------------------------------- Iteration    1(  21)  ---------------------------------------


    POTLOK:  cpu time    0.56: real time    0.56
    SETDIJ:  cpu time    0.05: real time    0.05
    EDDIAG:  cpu time    8.16: real time    8.19
  RMM-DIIS:  cpu time   15.40: real time   15.44
    ORTHCH:  cpu time    1.16: real time    1.16
       DOS:  cpu time    0.00: real time    0.00
    CHARGE:  cpu time    3.12: real time    3.13
    MIXING:  cpu time    0.02: real time    0.03
    --------------------------------------------
      LOOP:  cpu time   28.48: real time   28.56

 eigenvalue-minimisations  :  1343
 total energy-change (2. order) :-0.2142308E-04  (-0.9238193E-06)
 number of electron     527.9999296 magnetization 
 augmentation part      193.4400171 magnetization 

 DIPCOR: dipole corrections for dipol
 direction  3 min pos   143,
 dipolmoment           0.000000      0.000000      0.000662 electrons x Angstroem
 Tr[quadrupol]     -9609.126987

 energy correction for charged system         0.000000 eV
 dipol+quadrupol energy correction            0.000000 eV
 added-field ion interaction         -0.015899 eV  (added to PSCEN)


 Broyden mixing:
  rms(total) = 0.10201E-02    rms(broyden)= 0.10201E-02
  rms(prec ) = 0.22566E-02
  weight for this iteration     100.00

 eigenvalues of (default mixing * dielectric matrix)
  average eigenvalue GAMMA=   1.3461
  3.2860  2.3985  2.2363  2.2363  0.8568  0.8568  0.2726  1.2991  1.1207  1.0319
  1.0319  0.7260  0.7461  0.7461

 Free energy of the ion-electron system (eV)
  ---------------------------------------------------
  alpha Z        PSCENC =      1495.03531011
  Ewald energy   TEWEN  =     87932.46543955
  -1/2 Hartree   DENC   =   -134520.22365847
  -exchange  EXHF       =         0.00000000
  -V(xc)+E(xc)   XCENC  =       709.76552055
  PAW double counting   =     48192.44217865   -47191.09769441
  entropy T*S    EENTRO =        -0.02587096
  eigenvalues    EBANDS =     -1216.95382714
  atomic energy  EATOM  =     44451.88670910
  ---------------------------------------------------
  free energy    TOTEN  =      -146.70589302 eV

  energy without entropy =     -146.68002206  energy(sigma->0) =     -146.69295754


--------------------------------------------------------------------------------------------------------




----------------------------------------- Iteration    1(  22)  ---------------------------------------


    POTLOK:  cpu time    0.58: real time    0.59
    SETDIJ:  cpu time    0.04: real time    0.04
    EDDIAG:  cpu time    7.73: real time    7.75
  RMM-DIIS:  cpu time   12.73: real time   12.76
    ORTHCH:  cpu time    1.16: real time    1.17
       DOS:  cpu time    0.00: real time    0.00
    CHARGE:  cpu time    2.90: real time    2.90
    MIXING:  cpu time    0.02: real time    0.03
    --------------------------------------------
      LOOP:  cpu time   25.17: real time   25.24

 eigenvalue-minimisations  :  1044
 total energy-change (2. order) :-0.2536326E-04  (-0.3955655E-06)
 number of electron     527.9999296 magnetization 
 augmentation part      193.4400195 magnetization 

 DIPCOR: dipole corrections for dipol
 direction  3 min pos   143,
 dipolmoment           0.000000      0.000000     -0.001240 electrons x Angstroem
 Tr[quadrupol]     -9609.114327

 energy correction for charged system         0.000000 eV
 dipol+quadrupol energy correction            0.000000 eV
 added-field ion interaction          0.029775 eV  (added to PSCEN)


 Broyden mixing:
  rms(total) = 0.13538E-02    rms(broyden)= 0.13538E-02
  rms(prec ) = 0.30723E-02
  weight for this iteration     100.00

 eigenvalues of (default mixing * dielectric matrix)
  average eigenvalue GAMMA=   1.3562
  3.7522  2.6082  2.3252  1.8818  1.5219  0.2726  0.8289  0.8289  1.1887  1.0998
  0.7148  0.7782  0.7782  0.8820  0.8820

 Free energy of the ion-electron system (eV)
  ---------------------------------------------------
  alpha Z        PSCENC =      1495.08098471
  Ewald energy   TEWEN  =     87932.46543955
  -1/2 Hartree   DENC   =   -134520.11672947
  -exchange  EXHF       =         0.00000000
  -V(xc)+E(xc)   XCENC  =       709.76549489
  PAW double counting   =     48192.54188424   -47191.19987459
  entropy T*S    EENTRO =        -0.02586906
  eigenvalues    EBANDS =     -1217.10395775
  atomic energy  EATOM  =     44451.88670910
  ---------------------------------------------------
  free energy    TOTEN  =      -146.70591839 eV

  energy without entropy =     -146.68004933  energy(sigma->0) =     -146.69298386


--------------------------------------------------------------------------------------------------------




----------------------------------------- Iteration    1(  23)  ---------------------------------------


    POTLOK:  cpu time    0.67: real time    0.67
    SETDIJ:  cpu time    0.04: real time    0.04
    EDDIAG:  cpu time    7.72: real time    7.74
  RMM-DIIS:  cpu time   13.83: real time   13.91
    ORTHCH:  cpu time    1.16: real time    1.17
       DOS:  cpu time    0.00: real time    0.00
    CHARGE:  cpu time    2.89: real time    2.89
    MIXING:  cpu time    0.03: real time    0.03
    --------------------------------------------
      LOOP:  cpu time   26.33: real time   26.45

 eigenvalue-minimisations  :  1127
 total energy-change (2. order) : 0.1143986E-04  (-0.3549788E-06)
 number of electron     527.9999296 magnetization 
 augmentation part      193.4400495 magnetization 

 DIPCOR: dipole corrections for dipol
 direction  3 min pos   143,
 dipolmoment           0.000000      0.000000     -0.000338 electrons x Angstroem
 Tr[quadrupol]     -9609.109760

 energy correction for charged system         0.000000 eV
 dipol+quadrupol energy correction            0.000000 eV
 added-field ion interaction          0.008127 eV  (added to PSCEN)


 Broyden mixing:
  rms(total) = 0.63461E-03    rms(broyden)= 0.63461E-03
  rms(prec ) = 0.14410E-02
  weight for this iteration     100.00

 eigenvalues of (default mixing * dielectric matrix)
  average eigenvalue GAMMA=   1.4007
  4.0325  2.4374  2.4374  1.5376  1.5376  1.5618  1.5618  0.2726  0.8138  0.8138
  1.2235  0.9708  0.9708  0.7945  0.7222  0.7222

 Free energy of the ion-electron system (eV)
  ---------------------------------------------------
  alpha Z        PSCENC =      1495.05933640
  Ewald energy   TEWEN  =     87932.46543955
  -1/2 Hartree   DENC   =   -134520.08104759
  -exchange  EXHF       =         0.00000000
  -V(xc)+E(xc)   XCENC  =       709.76537268
  PAW double counting   =     48192.52442305   -47191.18241888
  entropy T*S    EENTRO =        -0.02587087
  eigenvalues    EBANDS =     -1217.11785039
  atomic energy  EATOM  =     44451.88670910
  ---------------------------------------------------
  free energy    TOTEN  =      -146.70590695 eV

  energy without entropy =     -146.68003607  energy(sigma->0) =     -146.69297151


--------------------------------------------------------------------------------------------------------




----------------------------------------- Iteration    1(  24)  ---------------------------------------


    POTLOK:  cpu time    0.56: real time    0.57
    SETDIJ:  cpu time    0.04: real time    0.04
    EDDIAG:  cpu time    7.84: real time    7.86
  RMM-DIIS:  cpu time   12.10: real time   12.14
    ORTHCH:  cpu time    1.14: real time    1.14
       DOS:  cpu time    0.00: real time    0.00
    --------------------------------------------
      LOOP:  cpu time   21.69: real time   21.75

 eigenvalue-minimisations  :  1001
 total energy-change (2. order) :-0.8969218E-06  (-0.2090520E-06)
 number of electron     527.9999296 magnetization 
 augmentation part      193.4400495 magnetization 

 DIPCOR: dipole corrections for dipol
 direction  3 min pos   143,
 dipolmoment           0.000000      0.000000      0.000028 electrons x Angstroem
 Tr[quadrupol]     -9609.104957

 energy correction for charged system         0.000000 eV
 dipol+quadrupol energy correction            0.000000 eV
 added-field ion interaction         -0.000662 eV  (added to PSCEN)


 Free energy of the ion-electron system (eV)
  ---------------------------------------------------
  alpha Z        PSCENC =      1495.05054791
  Ewald energy   TEWEN  =     87932.46543955
  -1/2 Hartree   DENC   =   -134520.03688053
  -exchange  EXHF       =         0.00000000
  -V(xc)+E(xc)   XCENC  =       709.76532752
  PAW double counting   =     48192.56986996   -47191.22800450
  entropy T*S    EENTRO =        -0.02587375
  eigenvalues    EBANDS =     -1217.15304309
  atomic energy  EATOM  =     44451.88670910
  ---------------------------------------------------
  free energy    TOTEN  =      -146.70590784 eV

  energy without entropy =     -146.68003409  energy(sigma->0) =     -146.69297097


--------------------------------------------------------------------------------------------------------




 average (electrostatic) potential at core
  the test charge radii are     1.2098
  (the norm of the test charge is              1.0000)
       1 -71.6151       2 -71.6151       3 -71.6151       4 -71.6151       5 -71.6151
       6 -71.6151       7 -71.6151       8 -71.6151       9 -71.6151      10 -71.6151
      11 -71.6151      12 -71.6151      13 -71.9388      14 -71.9388      15 -71.9388
      16 -71.9388      17 -71.9388      18 -71.9388      19 -71.9388      20 -71.9388
      21 -71.9388      22 -71.9388      23 -71.9388      24 -71.9388      25 -71.9390
[...]
    SETDIJ:  cpu time    0.04: real time    0.04
    EDDIAG:  cpu time    7.66: real time    7.68
  RMM-DIIS:  cpu time   12.12: real time   12.15
    ORTHCH:  cpu time    1.13: real time    1.14
       DOS:  cpu time    0.00: real time    0.00
    --------------------------------------------
      LOOP:  cpu time   21.51: real time   21.84

 eigenvalue-minimisations  :   957
 total energy-change (2. order) : 0.4318208E-06  (-0.2633934E-06)
 number of electron     527.9999400 magnetization 
 augmentation part      193.4149097 magnetization 

 DIPCOR: dipole corrections for dipol
 direction  3 min pos   149,
 dipolmoment           0.000000      0.000000      0.005634 electrons x Angstroem
 Tr[quadrupol]     -9609.133309

 energy correction for charged system         0.000000 eV
 dipol+quadrupol energy correction           -0.000002 eV
 added-field ion interaction          0.035762 eV  (added to PSCEN)


  free energy =  -0.146731546258E+03  energy without entropy=  -0.146710474297E+03


--------------------------------------------------------------------------------------------------------




------------------------ aborting loop because EDIFF is reached ----------------------------------------


    CHARGE:  cpu time    2.89: real time    2.89
    FORLOC:  cpu time    0.13: real time    0.13
    FORNL :  cpu time    9.65: real time    9.68
    STRESS:  cpu time   29.05: real time   29.13
    FORCOR:  cpu time    0.67: real time    0.67
    FORHAR:  cpu time    0.25: real time    0.25
    MIXING:  cpu time    0.02: real time    0.02

  Number of pair interactions contributing to vdW energy:  171288
  Estimated vdW energy (eV):  -4.04154
    FORVDW:  cpu time    0.03: real time    0.03

  FORCE on cell =-STRESS in cart. coord.  units (eV):
  Direction    XX          YY          ZZ          XY          YZ          ZX
  --------------------------------------------------------------------------------------
  Alpha Z  1495.05121  1495.05121  1495.05121
  Ewald  119435.41509119435.41509************     0.00000     0.00000     0.00000
  Hartree131522.69512131522.69512************     0.00000     0.00000     0.00000
  E(xc)   -2370.17430 -2370.17428 -2379.78471    -0.00002     0.00000     0.00000
  Local  ************************267867.62858     0.00279     0.00002    -0.00001
  n-local   -71.60121   -75.34778   -46.80280    -3.24476    -2.97225    -1.70908
  augment  3246.41212  3246.41487  3264.24027    -0.00238    -0.00002     0.00001
  Kinetic  7337.05107  7332.24208  7399.29928    -4.16479    -0.68720    -0.39676
  Fock        0.00000     0.00000     0.00000     0.00000     0.00000     0.00000
  -------------------------------------------------------------------------------------
  Total     -30.78130   -30.78130    -1.32599     0.00000     0.00000     0.00000
  in kB     -27.47395   -27.47395    -1.18352     0.00000     0.00000     0.00000
  external pressure =      -18.71 kB  Pullay stress =        0.00 kB



--------------------------------------------------------------------------------------------------------



  FREE ENERGIE OF THE ION-ELECTRON SYSTEM (eV)
  ---------------------------------------------------
  free  energy   TOTEN  =      -150.77308676 eV

  energy  without entropy=     -150.75201480  energy(sigma->0) =     -150.76255078
 
 d Force = 0.9207349E-03[ 0.823E-03, 0.102E-02]  d Energy = 0.9039238E-03 0.168E-04
 d Force =-0.7733104E+02[-0.773E+02,-0.773E+02]  d Ewald  =-0.7733104E+02 0.415E-06


--------------------------------------------------------------------------------------------------------


    POTLOK:  cpu time    0.60: real time    0.61


--------------------------------------------------------------------------------------------------------


 Quasi-Newton relaxation of ions (Broydens 2nd method)
  g(Force)  = 0.299E-03   g(Stress)= 0.000E+00

 retain information from N=  1 steps
 eigenvalues of (default step * inverse Hessian matrix)
  average eigenvalue of G=  12.5960
 eigenvalue spectrum of G is 12.5960


--------------------------------------------------------------------------------------------------------


    WAVPRE:  cpu time    0.20: real time    0.20
 FEWALD executed in parallel
    FEWALD:  cpu time    0.00: real time    0.00
    ORTHCH:  cpu time    4.56: real time    4.57
     LOOP+:  cpu time  269.00: real time  270.04


----------------------------------------- Iteration    8(   1)  ---------------------------------------


    POTLOK:  cpu time    0.62: real time    0.62
    SETDIJ:  cpu time    0.04: real time    0.04
     EDDAV:  cpu time   38.52: real time   38.63
       DOS:  cpu time    0.00: real time    0.00
    CHARGE:  cpu time    2.94: real time    2.94
    MIXING:  cpu time    0.01: real time    0.01
    --------------------------------------------
      LOOP:  cpu time   42.13: real time   42.24

 eigenvalue-minimisations  :  1728
 total energy-change (2. order) : 0.1479718E-01  (-0.1079219E+01)
 number of electron     527.9999383 magnetization 
 augmentation part      193.3972557 magnetization 

 DIPCOR: dipole corrections for dipol
 direction  3 min pos   149,
 dipolmoment           0.000000      0.000000      0.005595 electrons x Angstroem
 Tr[quadrupol]     -9609.134359

 energy correction for charged system         0.000000 eV
 dipol+quadrupol energy correction           -0.000002 eV
 added-field ion interaction          0.036599 eV  (added to PSCEN)


  free energy =  -0.146716749512E+03  energy without entropy=  -0.146696035131E+03


--------------------------------------------------------------------------------------------------------




----------------------------------------- Iteration    8(   2)  ---------------------------------------


    POTLOK:  cpu time    0.56: real time    0.56
    SETDIJ:  cpu time    0.04: real time    0.04
    EDDIAG:  cpu time    8.06: real time    8.09
  RMM-DIIS:  cpu time   19.65: real time   19.71
    ORTHCH:  cpu time    1.14: real time    1.14
       DOS:  cpu time    0.00: real time    0.00
    CHARGE:  cpu time    2.93: real time    2.94
    MIXING:  cpu time    0.01: real time    0.01
    --------------------------------------------
      LOOP:  cpu time   32.39: real time   32.49

 eigenvalue-minimisations  :  1732
 total energy-change (2. order) :-0.1078544E-01  (-0.1056288E-01)
 number of electron     527.9999382 magnetization 
 augmentation part      193.4039636 magnetization 

 DIPCOR: dipole corrections for dipol
 direction  3 min pos   149,
 dipolmoment           0.000000      0.000000     -0.006106 electrons x Angstroem
 Tr[quadrupol]     -9609.131576

 energy correction for charged system         0.000000 eV
 dipol+quadrupol energy correction           -0.000002 eV
 added-field ion interaction         -0.039946 eV  (added to PSCEN)


 eigenvalues of (default mixing * dielectric matrix)
  average eigenvalue GAMMA=   0.8181
  0.8181

  free energy =  -0.146727534952E+03  energy without entropy=  -0.146706812424E+03


--------------------------------------------------------------------------------------------------------




----------------------------------------- Iteration    8(   3)  ---------------------------------------


    POTLOK:  cpu time    0.56: real time    0.56
    SETDIJ:  cpu time    0.04: real time    0.04
    EDDIAG:  cpu time    7.93: real time    7.96
  RMM-DIIS:  cpu time   20.11: real time   20.16
    ORTHCH:  cpu time    1.18: real time    1.20
       DOS:  cpu time    0.00: real time    0.00
    CHARGE:  cpu time    3.01: real time    3.04
    MIXING:  cpu time    0.01: real time    0.01
    --------------------------------------------
      LOOP:  cpu time   32.85: real time   32.97

 eigenvalue-minimisations  :  1803
 total energy-change (2. order) :-0.1276987E-03  (-0.6348442E-03)
 number of electron     527.9999383 magnetization 
 augmentation part      193.4053986 magnetization 

 DIPCOR: dipole corrections for dipol
 direction  3 min pos   149,
 dipolmoment           0.000000      0.000000      0.015008 electrons x Angstroem
 Tr[quadrupol]     -9609.115536

 energy correction for charged system         0.000000 eV
 dipol+quadrupol energy correction           -0.000011 eV
 added-field ion interaction          0.098176 eV  (added to PSCEN)


 eigenvalues of (default mixing * dielectric matrix)
  average eigenvalue GAMMA=   0.7428
  0.8420  0.6435

  free energy =  -0.146727662651E+03  energy without entropy=  -0.146706968542E+03


--------------------------------------------------------------------------------------------------------




----------------------------------------- Iteration    8(   4)  ---------------------------------------


    POTLOK:  cpu time    0.65: real time    0.65
    SETDIJ:  cpu time    0.04: real time    0.04
    EDDIAG:  cpu time    7.69: real time    7.71
  RMM-DIIS:  cpu time   19.28: real time   19.33
    ORTHCH:  cpu time    1.15: real time    1.16
       DOS:  cpu time    0.00: real time    0.00
    CHARGE:  cpu time    2.92: real time    2.93
    MIXING:  cpu time    0.01: real time    0.01
    --------------------------------------------
      LOOP:  cpu time   31.75: real time   31.84

 eigenvalue-minimisations  :  1732
 total energy-change (2. order) : 0.6208517E-03  (-0.1098856E-03)
 number of electron     527.9999383 magnetization 
 augmentation part      193.4059338 magnetization 

 DIPCOR: dipole corrections for dipol
 direction  3 min pos   148,
 dipolmoment           0.000000      0.000000     -0.002615 electrons x Angstroem
 Tr[quadrupol]     -9609.099538

 energy correction for charged system         0.000000 eV
 dipol+quadrupol energy correction            0.000000 eV
 added-field ion interaction         -0.004217 eV  (added to PSCEN)


 eigenvalues of (default mixing * dielectric matrix)
  average eigenvalue GAMMA=   1.3325
  2.5778  1.1363  0.2835

  free energy =  -0.146727041799E+03  energy without entropy=  -0.146706359298E+03


--------------------------------------------------------------------------------------------------------




----------------------------------------- Iteration    8(   5)  ---------------------------------------


    POTLOK:  cpu time    0.56: real time    0.56
    SETDIJ:  cpu time    0.04: real time    0.04
    EDDIAG:  cpu time    7.81: real time    7.83
  RMM-DIIS:  cpu time   19.21: real time   19.25
    ORTHCH:  cpu time    1.14: real time    1.15
       DOS:  cpu time    0.00: real time    0.00
    CHARGE:  cpu time    2.98: real time    2.98
    MIXING:  cpu time    0.01: real time    0.01
    --------------------------------------------
      LOOP:  cpu time   31.75: real time   31.83

 eigenvalue-minimisations  :  1735
 total energy-change (2. order) : 0.3229105E-03  (-0.1948048E-03)
 number of electron     527.9999383 magnetization 
 augmentation part      193.4048526 magnetization 

 DIPCOR: dipole corrections for dipol
 direction  3 min pos   148,
 dipolmoment           0.000000      0.000000      0.002044 electrons x Angstroem
 Tr[quadrupol]     -9609.104994

 energy correction for charged system         0.000000 eV
 dipol+quadrupol energy correction            0.000000 eV
 added-field ion interaction          0.003297 eV  (added to PSCEN)


 eigenvalues of (default mixing * dielectric matrix)
  average eigenvalue GAMMA=   1.1333
  2.3487  0.9472  0.9472  0.2901

  free energy =  -0.146726718888E+03  energy without entropy=  -0.146706035124E+03


--------------------------------------------------------------------------------------------------------




----------------------------------------- Iteration    8(   6)  ---------------------------------------


    POTLOK:  cpu time    0.56: real time    0.57
    SETDIJ:  cpu time    0.04: real time    0.04
    EDDIAG:  cpu time    7.74: real time    7.76
  RMM-DIIS:  cpu time   19.63: real time   19.68
    ORTHCH:  cpu time    1.30: real time    1.30
       DOS:  cpu time    0.00: real time    0.00
    CHARGE:  cpu time    2.94: real time    2.95
    MIXING:  cpu time    0.02: real time    0.01
    --------------------------------------------
      LOOP:  cpu time   32.22: real time   32.31

 eigenvalue-minimisations  :  1740
 total energy-change (2. order) : 0.3461408E-04  (-0.7111228E-05)
 number of electron     527.9999383 magnetization 
 augmentation part      193.4051520 magnetization 

 DIPCOR: dipole corrections for dipol
 direction  3 min pos   148,
 dipolmoment           0.000000      0.000000      0.002594 electrons x Angstroem
 Tr[quadrupol]     -9609.106928

 energy correction for charged system         0.000000 eV
 dipol+quadrupol energy correction            0.000000 eV
 added-field ion interaction          0.004184 eV  (added to PSCEN)


 eigenvalues of (default mixing * dielectric matrix)
  average eigenvalue GAMMA=   1.1670
  2.4353  1.1749  1.1749  0.2880  0.7620

  free energy =  -0.146726684274E+03  energy without entropy=  -0.146706002183E+03


--------------------------------------------------------------------------------------------------------




----------------------------------------- Iteration    8(   7)  ---------------------------------------


    POTLOK:  cpu time    0.57: real time    0.57
    SETDIJ:  cpu time    0.04: real time    0.04
    EDDIAG:  cpu time    7.74: real time    7.76
  RMM-DIIS:  cpu time   19.11: real time   19.16
    ORTHCH:  cpu time    1.22: real time    1.22
       DOS:  cpu time    0.00: real time    0.00
    CHARGE:  cpu time    2.92: real time    2.93
    MIXING:  cpu time    0.02: real time    0.02
    --------------------------------------------
      LOOP:  cpu time   31.61: real time   31.70

 eigenvalue-minimisations  :  1734
 total energy-change (2. order) : 0.1338463E-04  (-0.4711355E-05)
 number of electron     527.9999383 magnetization 
 augmentation part      193.4052687 magnetization 

 DIPCOR: dipole corrections for dipol
 direction  3 min pos   148,
 dipolmoment           0.000000      0.000000      0.003114 electrons x Angstroem
 Tr[quadrupol]     -9609.112960

 energy correction for charged system         0.000000 eV
 dipol+quadrupol energy correction            0.000000 eV
 added-field ion interaction          0.005022 eV  (added to PSCEN)


 eigenvalues of (default mixing * dielectric matrix)
  average eigenvalue GAMMA=   1.2554
  2.4075  1.3960  1.3960  0.2881  1.2108  0.8343

  free energy =  -0.146726670890E+03  energy without entropy=  -0.146705983564E+03


--------------------------------------------------------------------------------------------------------




----------------------------------------- Iteration    8(   8)  ---------------------------------------


    POTLOK:  cpu time    0.56: real time    0.56
    SETDIJ:  cpu time    0.04: real time    0.04
    EDDIAG:  cpu time    7.69: real time    7.71
  RMM-DIIS:  cpu time   18.00: real time   18.04
    ORTHCH:  cpu time    1.14: real time    1.14
       DOS:  cpu time    0.00: real time    0.00
    --------------------------------------------
      LOOP:  cpu time   27.42: real time   27.49

 eigenvalue-minimisations  :  1554
 total energy-change (2. order) : 0.8032875E-06  (-0.9756342E-06)
 number of electron     527.9999383 magnetization 
 augmentation part      193.4052687 magnetization 

 DIPCOR: dipole corrections for dipol
 direction  3 min pos   148,
 dipolmoment           0.000000      0.000000      0.003072 electrons x Angstroem
 Tr[quadrupol]     -9609.115070

 energy correction for charged system         0.000000 eV
 dipol+quadrupol energy correction            0.000000 eV
 added-field ion interaction          0.004955 eV  (added to PSCEN)


  free energy =  -0.146726670086E+03  energy without entropy=  -0.146705980646E+03


--------------------------------------------------------------------------------------------------------




------------------------ aborting loop because EDIFF is reached ----------------------------------------


    CHARGE:  cpu time    2.87: real time    2.88
    FORLOC:  cpu time    0.13: real time    0.13
    FORNL :  cpu time    9.88: real time    9.90
    STRESS:  cpu time   29.06: real time   29.13
    FORCOR:  cpu time    0.77: real time    0.77
    FORHAR:  cpu time    0.25: real time    0.25
    MIXING:  cpu time    0.02: real time    0.02

  Number of pair interactions contributing to vdW energy:  171288
  Estimated vdW energy (eV):  -4.04781
    FORVDW:  cpu time    0.02: real time    0.03

  FORCE on cell =-STRESS in cart. coord.  units (eV):
  Direction    XX          YY          ZZ          XY          YZ          ZX
  --------------------------------------------------------------------------------------
  Alpha Z  1495.05121  1495.05121  1495.05121
  Ewald  119779.13928119779.13928************     0.00000     0.00000     0.00000
  Hartree131861.50478131861.50478************     0.00000     0.00000     0.00000
  E(xc)   -2370.36313 -2370.36311 -2379.92960    -0.00002     0.00000     0.00000
  Local  ************************268556.89501     0.00280     0.00002    -0.00001
  n-local   -70.39551   -74.16516   -45.44292    -3.26476    -2.99433    -1.72177
  augment  3246.39236  3246.39511  3263.94082    -0.00238    -0.00003     0.00002
  Kinetic  7337.51693  7332.69775  7399.23769    -4.17360    -0.69439    -0.40090
  Fock        0.00000     0.00000     0.00000     0.00000     0.00000     0.00000
  -------------------------------------------------------------------------------------
  Total     -30.14533   -30.14533    -0.28777     0.00000     0.00000     0.00000
  in kB     -26.90632   -26.90632    -0.25685     0.00000     0.00000     0.00000
  external pressure =      -18.02 kB  Pullay stress =        0.00 kB



--------------------------------------------------------------------------------------------------------



  FREE ENERGIE OF THE ION-ELECTRON SYSTEM (eV)
  ---------------------------------------------------
  free  energy   TOTEN  =      -150.77447690 eV

  energy  without entropy=     -150.75378746  energy(sigma->0) =     -150.76413218
 
 d Force = 0.1585586E-02[-0.444E-03, 0.362E-02]  d Energy = 0.1390140E-02 0.195E-03
 d Force =-0.3391343E+03[-0.339E+03,-0.339E+03]  d Ewald  =-0.3391344E+03 0.362E-04


--------------------------------------------------------------------------------------------------------


    POTLOK:  cpu time    0.63: real time    0.63


--------------------------------------------------------------------------------------------------------


 Quasi-Newton relaxation of ions (Broydens 2nd method)
  g(Force)  = 0.340E-05   g(Stress)= 0.000E+00

 retain information from N=  1 steps
 eigenvalues of (default step * inverse Hessian matrix)
  average eigenvalue of G=  12.1472
 eigenvalue spectrum of G is 12.1472


--------------------------------------------------------------------------------------------------------


  
 reached required accuracy - stopping structural energy minimisation
     LOOP+:  cpu time  305.82: real time  306.68
    4ORBIT:  cpu time    0.00: real time    0.00

 total amount of memory used by VASP on root node   251335. kBytes
========================================================================

   base      :      30000. kBytes
   nonlr-proj:      17482. kBytes
   fftplans  :      22592. kBytes
   grid      :      43063. kBytes
   one-center:        746. kBytes
   wavefun   :     137452. kBytes
 
  
  
 General timing and accounting informations for this job:
 ========================================================
  
                  Total CPU time used (sec):     3154.865
                            User time (sec):     3146.353
                          System time (sec):        8.513
                         Elapsed time (sec):     3164.839
  
                   Maximum memory used (kb):      582568.
                   Average memory used (kb):           0.
  
                          Minor page faults:      4180606
                          Major page faults:            6
                 Voluntary context switches:         1090
