 vasp.5.4.4.18Apr17-6-g9f103f2a35 (build Jun 30 2017 19:19:18) complex          
  
 executed on         MareNostrum4 date 2022.04.19  22:26:18
 running on   48 total cores
 distrk:  each k-point on   48 cores,    1 groups
 distr:  one band on NCORES_PER_BAND=   1 cores,   48 groups


--------------------------------------------------------------------------------------------------------


 INCAR:
 POTCAR:    PAW_PBE Ru 04Feb2005                  
 POTCAR:    PAW_PBE C 08Apr2002                   
 POTCAR:    PAW_PBE H 15Jun2001                   
 POTCAR:    PAW_PBE O 08Apr2002                   

 ----------------------------------------------------------------------------- 
|                                                                             |
|           W    W    AA    RRRRR   N    N  II  N    N   GGGG   !!!           |
|           W    W   A  A   R    R  NN   N  II  NN   N  G    G  !!!           |
|           W    W  A    A  R    R  N N  N  II  N N  N  G       !!!           |
|           W WW W  AAAAAA  RRRRR   N  N N  II  N  N N  G  GGG   !            |
|           WW  WW  A    A  R   R   N   NN  II  N   NN  G    G                |
|           W    W  A    A  R    R  N    N  II  N    N   GGGG   !!!           |
|                                                                             |
|      For optimal performance we recommend to set                            |
|        NCORE= 4 - approx SQRT( number of cores)                             |
|      NCORE specifies how many cores store one orbital (NPAR=cpu/NCORE).     |
|      This setting can  greatly improve the performance of VASP for DFT.     |
|      The default,   NCORE=1            might be grossly inefficient         |
|      on modern multi-core architectures or massively parallel machines.     |
|      Do your own testing !!!!                                               |
|      Unfortunately you need to use the default for GW and RPA calculations. |
|      (for HF NCORE is supported but not extensively tested yet)             |
|                                                                             |
 ----------------------------------------------------------------------------- 

 POTCAR:    PAW_PBE Ru 04Feb2005                  
  local pseudopotential read in
  partial core-charges read in
  partial kinetic energy density read in
  atomic valenz-charges read in
  non local Contribution for L=           2  read in
    real space projection operators read in
  non local Contribution for L=           2  read in
    real space projection operators read in
  non local Contribution for L=           0  read in
    real space projection operators read in
  non local Contribution for L=           0  read in
    real space projection operators read in
  non local Contribution for L=           1  read in
    real space projection operators read in
  non local Contribution for L=           1  read in
    real space projection operators read in
    PAW grid and wavefunctions read in
 
   number of l-projection  operators is LMAX  =           6
   number of lm-projection operators is LMMAX =          18
 
 POTCAR:    PAW_PBE C 08Apr2002                   
  local pseudopotential read in
  partial core-charges read in
  partial kinetic energy density read in
  atomic valenz-charges read in
  non local Contribution for L=           0  read in
    real space projection operators read in
  non local Contribution for L=           0  read in
    real space projection operators read in
  non local Contribution for L=           1  read in
    real space projection operators read in
  non local Contribution for L=           1  read in
    real space projection operators read in
    PAW grid and wavefunctions read in
 
   number of l-projection  operators is LMAX  =           4
   number of lm-projection operators is LMMAX =           8
 
 POTCAR:    PAW_PBE H 15Jun2001                   
  local pseudopotential read in
  atomic valenz-charges read in
  non local Contribution for L=           0  read in
    real space projection operators read in
  non local Contribution for L=           0  read in
    real space projection operators read in
  non local Contribution for L=           1  read in
    real space projection operators read in
    PAW grid and wavefunctions read in
 
   number of l-projection  operators is LMAX  =           3
   number of lm-projection operators is LMMAX =           5
 
 POTCAR:    PAW_PBE O 08Apr2002                   
  local pseudopotential read in
  partial core-charges read in
  partial kinetic energy density read in
  kinetic energy density of atom read in
  atomic valenz-charges read in
  non local Contribution for L=           0  read in
    real space projection operators read in
  non local Contribution for L=           0  read in
    real space projection operators read in
  non local Contribution for L=           1  read in
    real space projection operators read in
  non local Contribution for L=           1  read in
    real space projection operators read in
    PAW grid and wavefunctions read in
 
   number of l-projection  operators is LMAX  =           4
   number of lm-projection operators is LMMAX =           8
 
 Optimization of the real space projectors (new method)

 maximal supplied QI-value         = 13.98
 optimisation between [QCUT,QGAM] = [ 10.77, 21.68] = [ 32.47,131.56] Ry 
 Optimized for a Real-space Cutoff    1.51 Angstroem

   l    n(q)    QCUT    max X(q) W(low)/X(q) W(high)/X(q)  e(spline) 
   2      9    10.768    61.733    0.26E-03    0.97E-04    0.28E-06
   2      9    10.768    59.886    0.26E-03    0.10E-03    0.29E-06
   0     10    10.768    23.358    0.12E-03    0.28E-03    0.38E-06
   0     10    10.768    11.320    0.93E-04    0.23E-03    0.31E-06
   1      9    10.768    14.765    0.48E-03    0.21E-03    0.19E-06
   1      9    10.768     8.283    0.36E-03    0.16E-03    0.15E-06
 Optimization of the real space projectors (new method)

 maximal supplied QI-value         = 25.13
 optimisation between [QCUT,QGAM] = [ 10.81, 21.61] = [ 32.71,130.83] Ry 
 Optimized for a Real-space Cutoff    1.23 Angstroem

   l    n(q)    QCUT    max X(q) W(low)/X(q) W(high)/X(q)  e(spline) 
   0      8    10.807   115.676    0.36E-03    0.72E-03    0.24E-06
   0      8    10.807    87.132    0.35E-03    0.71E-03    0.24E-06
   1      7    10.807     4.429    0.19E-03    0.39E-03    0.11E-06
   1      7    10.807     2.733    0.14E-03    0.28E-03    0.13E-06
 Optimization of the real space projectors (new method)

 maximal supplied QI-value         = 34.20
 optimisation between [QCUT,QGAM] = [ 10.60, 21.55] = [ 31.48,130.03] Ry 
 Optimized for a Real-space Cutoff    1.23 Angstroem

   l    n(q)    QCUT    max X(q) W(low)/X(q) W(high)/X(q)  e(spline) 
   0      8    10.603    19.460    0.37E-03    0.59E-03    0.23E-06
   0      8    10.603    12.209    0.35E-03    0.56E-03    0.22E-06
   1      7    10.603     4.655    0.70E-04    0.28E-03    0.29E-06
 Optimization of the real space projectors (new method)

 maximal supplied QI-value         = 24.76
 optimisation between [QCUT,QGAM] = [ 10.64, 21.54] = [ 31.73,129.89] Ry 
 Optimized for a Real-space Cutoff    1.23 Angstroem

   l    n(q)    QCUT    max X(q) W(low)/X(q) W(high)/X(q)  e(spline) 
   0      8    10.645    20.381    0.38E-03    0.60E-03    0.15E-06
   0      8    10.645    15.268    0.40E-03    0.65E-03    0.17E-06
   1      7    10.645     5.964    0.30E-03    0.63E-03    0.18E-06
   1      7    10.645     5.382    0.24E-03    0.53E-03    0.16E-06
  PAW_PBE Ru 04Feb2005                  :
 energy of atom  1       EATOM= -454.8837
 kinetic energy error for atom=    0.0028 (will be added to EATOM!!)
  PAW_PBE C 08Apr2002                   :
 energy of atom  2       EATOM= -147.1560
 kinetic energy error for atom=    0.0116 (will be added to EATOM!!)
  PAW_PBE H 15Jun2001                   :
 energy of atom  3       EATOM=  -12.4884
 kinetic energy error for atom=    0.0045 (will be added to EATOM!!)
  PAW_PBE O 08Apr2002                   :
 energy of atom  4       EATOM= -432.3788
 kinetic energy error for atom=    0.0389 (will be added to EATOM!!)
 
 
 POSCAR: Ru  C  H  O                             
  positions in cartesian coordinates
  No initial velocities read in
 exchange correlation table for  LEXCH =        8
   RHO(1)=    0.500       N(1)  =     2000
   RHO(2)=  100.500       N(2)  =     4000
 


--------------------------------------------------------------------------------------------------------


 ion  position               nearest neighbor table
   1  0.048  0.167  0.200-  30 2.66  53 2.66  29 2.66   4 2.71   2 2.71  28 2.71   6 2.71   5 2.71
                            25 2.71
   2  0.048  0.417  0.200- 109 2.43  31 2.66  54 2.66  30 2.66   1 2.71   3 2.71   7 2.71  25 2.71
                             6 2.71  26 2.71
   3  0.048  0.667  0.200-  32 2.66  55 2.66  31 2.66   4 2.71   2 2.71  26 2.71   8 2.71  27 2.71
                             7 2.71
   4  0.048  0.917  0.200-  29 2.66  56 2.66  32 2.66   3 2.71   1 2.71  27 2.71   5 2.71  28 2.71
                             8 2.71
   5  0.190  0.167  0.200-  34 2.66  29 2.66  33 2.66  10 2.71   6 2.71   8 2.71   4 2.71   9 2.71
                             1 2.71
   6  0.190  0.417  0.200-  85 2.16  90 2.59  86 2.59  35 2.66  30 2.66  34 2.66  11 2.71   7 2.71
                             5 2.71   1 2.71  10 2.71   2 2.71
   7  0.190  0.667  0.200-  89 2.14  88 2.49  90 2.58  36 2.66  31 2.66  35 2.66  12 2.71   8 2.71
                             6 2.71   2 2.71  11 2.71   3 2.71
   8  0.190  0.917  0.200-  33 2.66  32 2.66  36 2.66   9 2.71   5 2.71   7 2.71   3 2.71  12 2.71
                             4 2.71
   9  0.333  0.167  0.200-  38 2.66  33 2.66  37 2.66   8 2.71  12 2.71  10 2.71  14 2.71   5 2.71
                            13 2.71
  10  0.333  0.417  0.200-  39 2.66  34 2.66  38 2.66  86 2.69   5 2.71   9 2.71  11 2.71  15 2.71
                             6 2.71  14 2.71
  11  0.333  0.667  0.200-  87 2.15  86 2.51  88 2.54  40 2.66  35 2.66  39 2.66   6 2.71  10 2.71
                            12 2.71  16 2.71   7 2.71  15 2.71
  12  0.333  0.917  0.200-  88 2.60  37 2.66  36 2.66  40 2.66   7 2.71   9 2.71  11 2.71  13 2.71
                             8 2.71  16 2.71
  13  0.476  0.167  0.200-  42 2.66  37 2.66  41 2.66  18 2.71  14 2.71  16 2.71  12 2.71  17 2.71
                             9 2.71
  14  0.476  0.417  0.200-  43 2.66  38 2.66  42 2.66  19 2.71  13 2.71  15 2.71   9 2.71  18 2.71
                            10 2.71
  15  0.476  0.667  0.200-  44 2.66  39 2.66  43 2.66  20 2.71  14 2.71  16 2.71  10 2.71  19 2.71
                            11 2.71
  16  0.476  0.917  0.200-  41 2.66  40 2.66  44 2.66  17 2.71  13 2.71  15 2.71  11 2.71  20 2.71
                            12 2.71
  17  0.619  0.167  0.200-  46 2.66  41 2.66  45 2.66  16 2.71  20 2.71  18 2.71  22 2.71  13 2.71
                            21 2.71
  18  0.619  0.417  0.200-  47 2.66  42 2.66  46 2.66  13 2.71  19 2.71  17 2.71  23 2.71  14 2.71
                            22 2.71
  19  0.619  0.667  0.200-  48 2.66  43 2.66  47 2.66  14 2.71  20 2.71  18 2.71  24 2.71  15 2.71
                            23 2.71
  20  0.619  0.917  0.200-  45 2.66  44 2.66  48 2.66  15 2.71  19 2.71  17 2.71  21 2.71  16 2.71
                            24 2.71
  21  0.762  0.167  0.200-  50 2.66  45 2.66  49 2.66  26 2.71  22 2.71  24 2.71  20 2.71  25 2.71
                            17 2.71
  22  0.762  0.417  0.200-  51 2.66  46 2.66  50 2.66  27 2.71  21 2.71  23 2.71  17 2.71  26 2.71
                            18 2.71
  23  0.762  0.667  0.200-  52 2.66  47 2.66  51 2.66  28 2.71  22 2.71  24 2.71  18 2.71  27 2.71
                            19 2.71
  24  0.762  0.917  0.200-  49 2.66  48 2.66  52 2.66  25 2.71  21 2.71  23 2.71  19 2.71  28 2.71
                            20 2.71
  25  0.905  0.167  0.200-  54 2.66  49 2.66  53 2.66  24 2.71  28 2.71  26 2.71   2 2.71  21 2.71
                             1 2.71
  26  0.905  0.417  0.200-  55 2.66  50 2.66  54 2.66  21 2.71  27 2.71  25 2.71   3 2.71  22 2.71
                             2 2.71
  27  0.905  0.667  0.200-  56 2.66  51 2.66  55 2.66  22 2.71  28 2.71  26 2.71   4 2.71  23 2.71
                             3 2.71
  28  0.905  0.917  0.200-  53 2.66  52 2.66  56 2.66  23 2.71  27 2.71  25 2.71   1 2.71  24 2.71
                             4 2.71
  29  0.095  0.083  0.100-   4 2.66   5 2.66   1 2.66  60 2.66  61 2.66  57 2.66  56 2.71  30 2.71
                            32 2.71  34 2.71  53 2.71  33 2.71
  30  0.095  0.333  0.100-   1 2.66   6 2.66   2 2.66  57 2.66  62 2.66  58 2.66  53 2.71  29 2.71
                            31 2.71  35 2.71  54 2.71  34 2.71
  31  0.095  0.583  0.100-   2 2.66   7 2.66   3 2.66  58 2.66  63 2.66  59 2.66  54 2.71  30 2.71
                            32 2.71  36 2.71  55 2.71  35 2.71
  32  0.095  0.833  0.100-   3 2.66   8 2.66   4 2.66  59 2.66  64 2.66  60 2.66  55 2.71  29 2.71
                            31 2.71  33 2.71  56 2.71  36 2.71
  33  0.238  0.083  0.100-   8 2.66   9 2.66   5 2.66  64 2.66  65 2.66  61 2.66  38 2.71  34 2.71
                            36 2.71  32 2.71  37 2.71  29 2.71
  34  0.238  0.333  0.100-   5 2.66  10 2.66   6 2.66  61 2.66  66 2.66  62 2.66  39 2.71  33 2.71
                            35 2.71  29 2.71  38 2.71  30 2.71
  35  0.238  0.583  0.100-   6 2.66  11 2.66   7 2.66  62 2.66  67 2.66  63 2.66  40 2.71  34 2.71
                            36 2.71  30 2.71  39 2.71  31 2.71
  36  0.238  0.833  0.100-   7 2.66  12 2.66   8 2.66  63 2.66  68 2.66  64 2.66  37 2.71  33 2.71
                            35 2.71  31 2.71  40 2.71  32 2.71
  37  0.381  0.083  0.100-  12 2.66  13 2.66   9 2.66  68 2.66  69 2.66  65 2.66  36 2.71  40 2.71
                            38 2.71  42 2.71  33 2.71  41 2.71
  38  0.381  0.333  0.100-   9 2.66  14 2.66  10 2.66  65 2.66  70 2.66  66 2.66  33 2.71  39 2.71
                            37 2.71  43 2.71  34 2.71  42 2.71
  39  0.381  0.583  0.100-  10 2.66  15 2.66  11 2.66  66 2.66  71 2.66  67 2.66  34 2.71  40 2.71
                            38 2.71  44 2.71  35 2.71  43 2.71
  40  0.381  0.833  0.100-  11 2.66  16 2.66  12 2.66  67 2.66  72 2.66  68 2.66  35 2.71  39 2.71
                            37 2.71  41 2.71  36 2.71  44 2.71
  41  0.524  0.083  0.100-  16 2.66  17 2.66  13 2.66  72 2.66  73 2.66  69 2.66  46 2.71  42 2.71
                            44 2.71  40 2.71  45 2.71  37 2.71
  42  0.524  0.333  0.100-  13 2.66  18 2.66  14 2.66  69 2.66  74 2.66  70 2.66  47 2.71  41 2.71
                            43 2.71  37 2.71  46 2.71  38 2.71
  43  0.524  0.583  0.100-  14 2.66  19 2.66  15 2.66  70 2.66  75 2.66  71 2.66  48 2.71  42 2.71
                            44 2.71  38 2.71  47 2.71  39 2.71
  44  0.524  0.833  0.100-  15 2.66  20 2.66  16 2.66  71 2.66  76 2.66  72 2.66  45 2.71  41 2.71
                            43 2.71  39 2.71  48 2.71  40 2.71
  45  0.667  0.083  0.100-  20 2.66  21 2.66  17 2.66  76 2.66  77 2.66  73 2.66  44 2.71  48 2.71
                            46 2.71  50 2.71  41 2.71  49 2.71
  46  0.667  0.333  0.100-  17 2.66  22 2.66  18 2.66  73 2.66  78 2.66  74 2.66  41 2.71  47 2.71
                            45 2.71  51 2.71  42 2.71  50 2.71
  47  0.667  0.583  0.100-  18 2.66  23 2.66  19 2.66  74 2.66  79 2.66  75 2.66  42 2.71  48 2.71
                            46 2.71  52 2.71  43 2.71  51 2.71
  48  0.667  0.833  0.100-  19 2.66  24 2.66  20 2.66  75 2.66  80 2.66  76 2.66  43 2.71  47 2.71
                            45 2.71  49 2.71  44 2.71  52 2.71
  49  0.810  0.083  0.100-  24 2.66  25 2.66  21 2.66  80 2.66  81 2.66  77 2.66  52 2.71  50 2.71
                            54 2.71  48 2.71  45 2.71  53 2.71
  50  0.810  0.333  0.100-  21 2.66  26 2.66  22 2.66  77 2.66  82 2.66  78 2.66  51 2.71  49 2.71
                            55 2.71  45 2.71  46 2.71  54 2.71
  51  0.810  0.583  0.100-  22 2.66  27 2.66  23 2.66  78 2.66  83 2.66  79 2.66  52 2.71  50 2.71
                            56 2.71  46 2.71  47 2.71  55 2.71
  52  0.810  0.833  0.100-  23 2.66  28 2.66  24 2.66  79 2.66  84 2.66  80 2.66  51 2.71  49 2.71
                            53 2.71  47 2.71  56 2.71  48 2.71
  53  0.952  0.083  0.100-  28 2.66   1 2.66  25 2.66  84 2.66  57 2.66  81 2.66  30 2.71  56 2.71
                            54 2.71  52 2.71  29 2.71  49 2.71
  54  0.952  0.333  0.100-  25 2.66   2 2.66  26 2.66  81 2.66  58 2.66  82 2.66  31 2.71  55 2.71
                            53 2.71  49 2.71  30 2.71  50 2.71
  55  0.952  0.583  0.100-  26 2.66   3 2.66  27 2.66  82 2.66  59 2.66  83 2.66  32 2.71  56 2.71
                            54 2.71  50 2.71  31 2.71  51 2.71
  56  0.952  0.833  0.100-  27 2.66   4 2.66  28 2.66  83 2.66  60 2.66  84 2.66  29 2.71  55 2.71
                            53 2.71  51 2.71  32 2.71  52 2.71
  57  0.048  0.167  0.000-  30 2.66  53 2.66  29 2.66  58 2.71  60 2.71  62 2.71  84 2.71  81 2.71
                            61 2.71
  58  0.048  0.417  0.000-  31 2.66  54 2.66  30 2.66  57 2.71  59 2.71  63 2.71  81 2.71  62 2.71
                            82 2.71
  59  0.048  0.667  0.000-  32 2.66  55 2.66  31 2.66  58 2.71  60 2.71  64 2.71  82 2.71  63 2.71
                            83 2.71
  60  0.048  0.917  0.000-  29 2.66  56 2.66  32 2.66  57 2.71  59 2.71  61 2.71  83 2.71  64 2.71
                            84 2.71
  61  0.190  0.167  0.000-  34 2.66  29 2.66  33 2.66  66 2.71  64 2.71  62 2.71  60 2.71  65 2.71
                            57 2.71
  62  0.190  0.417  0.000-  35 2.66  30 2.66  34 2.66  67 2.71  63 2.71  61 2.71  57 2.71  66 2.71
                            58 2.71
  63  0.190  0.667  0.000-  36 2.66  31 2.66  35 2.66  68 2.71  64 2.71  62 2.71  58 2.71  67 2.71
                            59 2.71
  64  0.190  0.917  0.000-  33 2.66  32 2.66  36 2.66  65 2.71  63 2.71  61 2.71  59 2.71  68 2.71
                            60 2.71
  65  0.333  0.167  0.000-  38 2.66  33 2.66  37 2.66  64 2.71  66 2.71  68 2.71  70 2.71  61 2.71
                            69 2.71
  66  0.333  0.417  0.000-  39 2.66  34 2.66  38 2.66  61 2.71  65 2.71  67 2.71  71 2.71  62 2.71
                            70 2.71
  67  0.333  0.667  0.000-  40 2.66  35 2.66  39 2.66  62 2.71  66 2.71  68 2.71  72 2.71  63 2.71
                            71 2.71
  68  0.333  0.917  0.000-  37 2.66  36 2.66  40 2.66  63 2.71  65 2.71  67 2.71  69 2.71  64 2.71
                            72 2.71
  69  0.476  0.167  0.000-  42 2.66  37 2.66  41 2.66  74 2.71  72 2.71  70 2.71  68 2.71  73 2.71
                            65 2.71
  70  0.476  0.417  0.000-  43 2.66  38 2.66  42 2.66  75 2.71  71 2.71  69 2.71  65 2.71  74 2.71
                            66 2.71
  71  0.476  0.667  0.000-  44 2.66  39 2.66  43 2.66  76 2.71  72 2.71  70 2.71  66 2.71  75 2.71
                            67 2.71
  72  0.476  0.917  0.000-  41 2.66  40 2.66  44 2.66  73 2.71  71 2.71  69 2.71  67 2.71  76 2.71
                            68 2.71
  73  0.619  0.167  0.000-  46 2.66  41 2.66  45 2.66  72 2.71  74 2.71  76 2.71  78 2.71  69 2.71
                            77 2.71
  74  0.619  0.417  0.000-  47 2.66  42 2.66  46 2.66  69 2.71  73 2.71  75 2.71  79 2.71  70 2.71
                            78 2.71
  75  0.619  0.667  0.000-  48 2.66  43 2.66  47 2.66  70 2.71  74 2.71  76 2.71  80 2.71  71 2.71
                            79 2.71
  76  0.619  0.917  0.000-  45 2.66  44 2.66  48 2.66  71 2.71  73 2.71  75 2.71  77 2.71  72 2.71
                            80 2.71
  77  0.762  0.167  0.000-  50 2.66  45 2.66  49 2.66  82 2.71  80 2.71  78 2.71  76 2.71  81 2.71
                            73 2.71
  78  0.762  0.417  0.000-  51 2.66  46 2.66  50 2.66  83 2.71  79 2.71  77 2.71  73 2.71  82 2.71
                            74 2.71
  79  0.762  0.667  0.000-  52 2.66  47 2.66  51 2.66  84 2.71  80 2.71  78 2.71  74 2.71  83 2.71
                            75 2.71
  80  0.762  0.917  0.000-  49 2.66  48 2.66  52 2.66  81 2.71  79 2.71  77 2.71  75 2.71  84 2.71
                            76 2.71
  81  0.905  0.167  0.000-  54 2.66  49 2.66  53 2.66  80 2.71  82 2.71  84 2.71  58 2.71  77 2.71
                            57 2.71
  82  0.905  0.417  0.000-  55 2.66  50 2.66  54 2.66  77 2.71  81 2.71  83 2.71  59 2.71  78 2.71
                            58 2.71
  83  0.905  0.667  0.000-  56 2.66  51 2.66  55 2.66  78 2.71  82 2.71  84 2.71  60 2.71  79 2.71
                            59 2.71
  84  0.905  0.917  0.000-  53 2.66  52 2.66  56 2.66  79 2.71  81 2.71  83 2.71  57 2.71  80 2.71
                            60 2.71
  85  0.197  0.432  0.301- 110 1.40  90 1.45  86 1.46   6 2.16
  86  0.285  0.516  0.296-  95 1.10  87 1.45  85 1.46  11 2.51   6 2.59  10 2.69
  87  0.328  0.670  0.300-  86 1.45  88 1.46  92 1.52  11 2.15
  88  0.280  0.740  0.294-  96 1.10  89 1.45  87 1.46   7 2.49  11 2.54  12 2.60
  89  0.193  0.662  0.300-  97 1.09  90 1.43  88 1.45   7 2.14
  90  0.153  0.510  0.299- 109 1.38  89 1.43  85 1.45   7 2.58   6 2.59
  91  0.194  0.229  0.349- 100 1.10  99 1.10 101 1.12 110 1.42
  92  0.407  0.753  0.337- 102 1.12 111 1.45  87 1.52  93 1.52
  93  0.457  0.681  0.345- 103 1.10 108 1.12  92 1.52  94 1.52
  94  0.542  0.780  0.371- 106 1.10 107 1.10 105 1.10  93 1.52
  95  0.318  0.462  0.312-  86 1.10
  96  0.311  0.853  0.308-  88 1.10
  97  0.160  0.711  0.320-  89 1.09
  98  0.055  0.337  0.321- 109 0.99
  99  0.247  0.288  0.380-  91 1.10
 100  0.148  0.129  0.371-  91 1.10
 101  0.216  0.204  0.305-  91 1.12
 102  0.445  0.856  0.312-  92 1.12
 103  0.424  0.586  0.375-  93 1.10
 104  0.433  0.838  0.421- 111 0.97
 105  0.539  0.817  0.419-  94 1.10
 106  0.578  0.727  0.374-  94 1.10
 107  0.574  0.874  0.341-  94 1.10
 108  0.464  0.637  0.299-  93 1.12
 109  0.071  0.437  0.312-  98 0.99  90 1.38   2 2.43
 110  0.155  0.309  0.337-  85 1.40  91 1.42
 111  0.383  0.782  0.397- 104 0.97  92 1.45
 
  Warning from LATTYP: Monoclinic adjustement (A1->A3, A2->A1, A3->A2)!
  Warning from LATTYP: Got some problem with cell dimensions!
  Tried to take original basis but could not verify dimensions!
  LATTYP: Found a simple monoclinic cell.
 ALAT       =    20.4796808342
 B/A-ratio  =     1.0467134775
 C/A-ratio  =     1.7371079010
 COS(beta)  =    -0.9695485959
  
  Lattice vectors:
  
 A1 = (  -8.1377999784, -18.7934440320,   0.0000000000)
 A2 = (   0.0000000000,   0.0000000000, -21.4363579450)
 A3 = (  21.7007999424,  28.1901660480,   0.0000000000)


Analysis of symmetry for initial positions (statically):
=====================================================================
 Subroutine PRICEL returns:
 Original cell was already a primitive cell.
 

 Routine SETGRP: Setting up the symmetry group for a 
 simple monoclinic supercell.


 Subroutine GETGRP returns: Found  1 space group operations
 (whereof  1 operations were pure point group operations)
 out of a pool of  4 trial point group operations.


The static configuration has the point symmetry C_1 .


Analysis of symmetry for dynamics (positions and initial velocities):
=====================================================================
 Subroutine PRICEL returns:
 Original cell was already a primitive cell.
 

 Routine SETGRP: Setting up the symmetry group for a 
 simple monoclinic supercell.


 Subroutine GETGRP returns: Found  1 space group operations
 (whereof  1 operations were pure point group operations)
 out of a pool of  4 trial point group operations.


The dynamic configuration has the point symmetry C_1 .


Analysis of constrained symmetry for selective dynamics:
=====================================================================
 Subroutine PRICEL returns:
 Original cell was already a primitive cell.
 

 Routine SETGRP: Setting up the symmetry group for a 
 simple monoclinic supercell.


 Subroutine GETGRP returns: Found  1 space group operations
 (whereof  1 operations were pure point group operations)
 out of a pool of  4 trial point group operations.


The constrained configuration has the point symmetry C_1 .


 Subroutine INISYM returns: Found  1 space group operations
 (whereof  1 operations are pure point group operations),
 and found     1 'primitive' translations

 
 
 KPOINTS: K-POINTS                                

Automatic generation of k-mesh.
Space group operators:
 irot       det(A)        alpha          n_x          n_y          n_z        tau_x        tau_y        tau_z
    1     1.000000     0.000000     1.000000     0.000000     0.000000     0.000000     0.000000     0.000000
 
 Subroutine IBZKPT returns following result:
 ===========================================
 
 Found      5 irreducible k-points:
 
 Following reciprocal coordinates:
            Coordinates               Weight
  0.000000  0.000000  0.000000      1.000000
  0.333333  0.000000  0.000000      2.000000
  0.000000  0.333333  0.000000      2.000000
  0.333333  0.333333  0.000000      2.000000
 -0.333333  0.333333  0.000000      2.000000
 
 Following cartesian coordinates:
            Coordinates               Weight
  0.000000  0.000000  0.000000      1.000000
  0.017555  0.010135  0.000000      2.000000
  0.000000  0.035473  0.000000      2.000000
  0.017555  0.045609  0.000000      2.000000
 -0.017555  0.025338  0.000000      2.000000
 


--------------------------------------------------------------------------------------------------------




 Dimension of arrays:
   k-points           NKPTS =      5   k-points in BZ     NKDIM =      5   number of bands    NBANDS=    480
   number of dos      NEDOS =    301   number of ions     NIONS =    111
   non local maximal  LDIM  =      6   non local SUM 2l+1 LMDIM =     18
   total plane-waves  NPLWV = 627200
   max r-space proj   IRMAX =   2409   max aug-charges    IRDMAX=  11289
   dimension x,y,z NGX =   100 NGY =   56 NGZ =  112
   dimension x,y,z NGXF=   200 NGYF=  112 NGZF=  224
   support grid    NGXF=   200 NGYF=  112 NGZF=  224
   ions per type =              84  10  14   3
   NGX,Y,Z   is equivalent  to a cutoff of   8.76,  8.58,  8.69 a.u.
   NGXF,Y,Z  is equivalent  to a cutoff of  17.51, 17.16, 17.37 a.u.

 SYSTEM =  x                                       
 POSCAR =  Ru  C  H  O                             

 Startparameter for this run:
   NWRITE =      0    write-flag & timer
   PREC   = normal    normal or accurate (medium, high low for compatibility)
   ISTART =      0    job   : 0-new  1-cont  2-samecut
   ICHARG =      2    charge: 1-file 2-atom 10-const
   ISPIN  =      1    spin polarized calculation?
   LNONCOLLINEAR =      F non collinear calculations
   LSORBIT =      F    spin-orbit coupling
   INIWAV =      1    electr: 0-lowe 1-rand  2-diag
   LASPH  =      F    aspherical Exc in radial PAW
   METAGGA=      F    non-selfconsistent MetaGGA calc.

 Electronic Relaxation 1
   ENCUT  =  450.0 eV  33.07 Ry    5.75 a.u.  32.84 18.77 37.08*2*pi/ulx,y,z
   ENINI  =  450.0     initial cutoff
   ENAUG  =  644.9 eV  augmentation charge cutoff
   NELM   =     50;   NELMIN=  5; NELMDL= -7     # of ELM steps 
   EDIFF  = 0.1E-04   stopping-criterion for ELM
   LREAL  =      T    real-space projection
   NLSPLINE    = F    spline interpolate recip. space projectors
   LCOMPAT=      F    compatible to vasp.4.4
   GGA_COMPAT  = T    GGA compatible to vasp.4.4-vasp.4.6
   LMAXPAW     = -100 max onsite density
   LMAXMIX     =    2 max onsite mixed and CHGCAR
   VOSKOWN=      0    Vosko Wilk Nusair interpolation
   ROPT   =   -0.00050  -0.00050  -0.00050  -0.00050
 Ionic relaxation
   EDIFFG = -.2E-01   stopping-criterion for IOM
   NSW    =    300    number of steps for IOM
   NBLOCK =      1;   KBLOCK =    300    inner block; outer block 
   IBRION =      2    ionic relax: 0-MD 1-quasi-New 2-CG
   NFREE  =      2    steps in history (QN), initial steepest desc. (CG)
   ISIF   =      2    stress and relaxation
   IWAVPR =     11    prediction:  0-non 1-charg 2-wave 3-comb
   ISYM   =      2    0-nonsym 1-usesym 2-fastsym
   LCORR  =      T    Harris-Foulkes like correction to forces

   POTIM  = 0.1500    time-step for ionic-motion
   TEIN   =    0.0    initial temperature
   TEBEG  =    0.0;   TEEND  =   0.0 temperature during run
   SMASS  =  -3.00    Nose mass-parameter (am)
   estimated Nose-frequenzy (Omega)   =  0.10E-29 period in steps =****** mass=  -0.824E-26a.u.
   SCALEE = 1.0000    scale energy and forces
   NPACO  =    256;   APACO  = 16.0  distance and # of slots for P.C.
   PSTRESS=    0.0 pullay stress

  Mass of Ions in am
   POMASS = 101.07 12.01  1.00 16.00
  Ionic Valenz
   ZVAL   =   8.00  4.00  1.00  6.00
  Atomic Wigner-Seitz radii
   RWIGS  =  -1.00 -1.00 -1.00 -1.00
  virtual crystal weights 
   VCA    =   1.00  1.00  1.00  1.00
   NELECT =     744.0000    total number of electrons
   NUPDOWN=      -1.0000    fix difference up-down

 DOS related values:
   EMIN   =  10.00;   EMAX   =-10.00  energy-range for DOS
   EFERMI =   0.00
   ISMEAR =     0;   SIGMA  =   0.03  broadening in eV -4-tet -1-fermi 0-gaus

 Electronic relaxation 2 (details)
   IALGO  =     68    algorithm
   LDIAG  =      T    sub-space diagonalisation (order eigenvalues)
   LSUBROT=      F    optimize rotation matrix (better conditioning)
   TURBO    =      0    0=normal 1=particle mesh
   IRESTART =      0    0=no restart 2=restart with 2 vectors
   NREBOOT  =      0    no. of reboots
   NMIN     =      0    reboot dimension
   EREF     =   0.00    reference energy to select bands
   IMIX   =      4    mixing-type and parameters
     AMIX     =   0.40;   BMIX     =  1.00
     AMIX_MAG =   1.60;   BMIX_MAG =  1.00
     AMIN     =   0.10
     WC   =   100.;   INIMIX=   1;  MIXPRE=   1;  MAXMIX= -45

 Intra band minimization:
   WEIMIN = 0.0010     energy-eigenvalue tresh-hold
   EBREAK =  0.52E-08  absolut break condition
   DEPER  =   0.30     relativ break condition  

   TIME   =   0.40     timestep for ELM

  volume/ion in A,a.u.               =      34.46       232.53
  Fermi-wavevector in a.u.,A,eV,Ry     =   0.948554  1.792507 12.241907  0.899755
  Thomas-Fermi vector in A             =   2.076753
 
 Write flags
   LWAVE        =      F    write WAVECAR
   LDOWNSAMPLE  =      F    k-point downsampling of WAVECAR
   LCHARG       =      F    write CHGCAR
   LVTOT        =      F    write LOCPOT, total local potential
   LVHAR        =      F    write LOCPOT, Hartree potential only
   LELF         =      F    write electronic localiz. function (ELF)
   LORBIT       =      0    0 simple, 1 ext, 2 COOP (PROOUT), +10 PAW based schemes


 Dipole corrections
   LMONO  =      F    monopole corrections only (constant potential shift)
   LDIPOL =      T    correct potential (dipole corrections)
   IDIPOL =      3    1-x, 2-y, 3-z, 4-all directions 
   EPSILON=  1.0000000 bulk dielectric constant

 Exchange correlation treatment:
   GGA     =    PE    GGA type
   LEXCH   =     8    internal setting for exchange type
   VOSKOWN=      0    Vosko Wilk Nusair interpolation
   LHFCALC =     F    Hartree Fock is set to
   LHFONE  =     F    Hartree Fock one center treatment
   AEXX    =    0.0000 exact exchange contribution

 Linear response parameters
   LEPSILON=     F    determine dielectric tensor
   LRPA    =     F    only Hartree local field effects (RPA)
   LNABLA  =     F    use nabla operator in PAW spheres
   LVEL    =     F    velocity operator in full k-point grid
   LINTERFAST=   F  fast interpolation
   KINTER  =     0    interpolate to denser k-point grid
   CSHIFT  =0.1000    complex shift for real part using Kramers Kronig
   OMEGAMAX=  -1.0    maximum frequency
   DEG_THRESHOLD= 0.2000000E-02 threshold for treating states as degnerate
   RTIME   =   -0.100 relaxation time in fs
  (WPLASMAI=    0.000 imaginary part of plasma frequency in eV, 0.658/RTIME)
   DFIELD  = 0.0000000 0.0000000 0.0000000 field for delta impulse in time
 
 Orbital magnetization related:
   ORBITALMAG=     F  switch on orbital magnetization
   LCHIMAG   =     F  perturbation theory with respect to B field
   DQ        =  0.001000  dq finite difference perturbation B field
   LLRAUG    =     F  two centre corrections for induced B field



--------------------------------------------------------------------------------------------------------


 conjugate gradient relaxation of ions
   using selective dynamics as specified on POSCAR
   WARNING: If single coordinates had been selected the selection of coordinates
            is made according to the corresponding   d i r e c t   coordinates!
            Don't support selection of single cartesian coordinates -- sorry ...
  !
 charge density and potential will be updated during run
 non-spin polarized calculation
 RMM-DIIS sequential band-by-band and
  variant of blocked Davidson during initial phase
 perform sub-space diagonalisation
    before iterative eigenvector-optimisation
 modified Broyden-mixing scheme, WC =      100.0
 initial mixing is a Kerker type mixing with AMIX =  0.4000 and BMIX =      1.0000
 Hartree-type preconditioning will be used
 using additional bands          108
 real space projection scheme for non local part
 use partial core corrections
 calculate Harris-corrections to forces 
   (improved forces if not selfconsistent)
 use gradient corrections 
 use of overlap-Matrix (Vanderbilt PP)
 Gauss-broadening in eV      SIGMA  =   0.03


--------------------------------------------------------------------------------------------------------


  energy-cutoff  :      450.00
  volume of cell :     3824.82
      direct lattice vectors                 reciprocal lattice vectors
    18.988199950  0.000000000  0.000000000     0.052664286  0.030405740  0.000000000
    -5.425199986  9.396722016  0.000000000     0.000000000  0.106420090  0.000000000
     0.000000000  0.000000000 21.436357945     0.000000000  0.000000000  0.046649716

  length of vectors
    18.988199950 10.850399971 21.436357945     0.060811480  0.106420090  0.046649716


 
 k-points in units of 2pi/SCALE and weight: K-POINTS                                
   0.00000000  0.00000000  0.00000000       0.111
   0.01755476  0.01013525  0.00000000       0.222
   0.00000000  0.03547336  0.00000000       0.222
   0.01755476  0.04560861  0.00000000       0.222
  -0.01755476  0.02533812  0.00000000       0.222
 
 k-points in reciprocal lattice and weights: K-POINTS                                
   0.00000000  0.00000000  0.00000000       0.111
   0.33333333  0.00000000  0.00000000       0.222
   0.00000000  0.33333333  0.00000000       0.222
   0.33333333  0.33333333  0.00000000       0.222
  -0.33333333  0.33333333  0.00000000       0.222
 
 position of ions in fractional coordinates (direct lattice) 
   0.04761857  0.16666751  0.20017397
   0.04761857  0.41666751  0.20017397
   0.04761857  0.66666751  0.20017397
   0.04761857  0.91666751  0.20017397
   0.19047572  0.16666751  0.20017397
   0.19047572  0.41666751  0.20017397
   0.19047572  0.66666751  0.20017397
   0.19047572  0.91666751  0.20017397
   0.33333286  0.16666751  0.20017397
   0.33333286  0.41666751  0.20017397
   0.33333286  0.66666751  0.20017397
   0.33333286  0.91666751  0.20017397
   0.47619000  0.16666751  0.20017397
   0.47619000  0.41666751  0.20017397
   0.47619000  0.66666751  0.20017397
   0.47619000  0.91666751  0.20017397
   0.61904714  0.16666751  0.20017397
   0.61904714  0.41666751  0.20017397
   0.61904714  0.66666751  0.20017397
   0.61904714  0.91666751  0.20017397
   0.76190429  0.16666751  0.20017397
   0.76190429  0.41666751  0.20017397
   0.76190429  0.66666751  0.20017397
   0.76190429  0.91666751  0.20017397
   0.90476143  0.16666751  0.20017397
   0.90476143  0.41666751  0.20017397
   0.90476143  0.66666751  0.20017397
   0.90476143  0.91666751  0.20017397
   0.09523857  0.08333250  0.10009367
   0.09523857  0.33333250  0.10009367
   0.09523857  0.58333250  0.10009367
   0.09523857  0.83333250  0.10009367
   0.23809572  0.08333250  0.10009367
   0.23809572  0.33333250  0.10009367
   0.23809572  0.58333250  0.10009367
   0.23809572  0.83333250  0.10009367
   0.38095286  0.08333250  0.10009367
   0.38095286  0.33333250  0.10009367
   0.38095286  0.58333250  0.10009367
   0.38095286  0.83333250  0.10009367
   0.52381000  0.08333250  0.10009367
   0.52381000  0.33333250  0.10009367
   0.52381000  0.58333250  0.10009367
   0.52381000  0.83333250  0.10009367
   0.66666715  0.08333250  0.10009367
   0.66666715  0.33333250  0.10009367
   0.66666715  0.58333250  0.10009367
   0.66666715  0.83333250  0.10009367
   0.80952429  0.08333250  0.10009367
   0.80952429  0.33333250  0.10009367
   0.80952429  0.58333250  0.10009367
   0.80952429  0.83333250  0.10009367
   0.95238143  0.08333250  0.10009367
   0.95238143  0.33333250  0.10009367
   0.95238143  0.58333250  0.10009367
   0.95238143  0.83333250  0.10009367
   0.04761857  0.16666751  0.00000002
   0.04761857  0.41666751  0.00000002
   0.04761857  0.66666751  0.00000002
   0.04761857  0.91666751  0.00000002
   0.19047572  0.16666751  0.00000002
   0.19047572  0.41666751  0.00000002
   0.19047572  0.66666751  0.00000002
   0.19047572  0.91666751  0.00000002
   0.33333286  0.16666751  0.00000002
   0.33333286  0.41666751  0.00000002
   0.33333286  0.66666751  0.00000002
   0.33333286  0.91666751  0.00000002
   0.47619000  0.16666751  0.00000002
   0.47619000  0.41666751  0.00000002
   0.47619000  0.66666751  0.00000002
   0.47619000  0.91666751  0.00000002
   0.61904714  0.16666751  0.00000002
   0.61904714  0.41666751  0.00000002
   0.61904714  0.66666751  0.00000002
   0.61904714  0.91666751  0.00000002
   0.76190429  0.16666751  0.00000002
   0.76190429  0.41666751  0.00000002
   0.76190429  0.66666751  0.00000002
   0.76190429  0.91666751  0.00000002
   0.90476143  0.16666751  0.00000002
   0.90476143  0.41666751  0.00000002
   0.90476143  0.66666751  0.00000002
   0.90476143  0.91666751  0.00000002
   0.19670049  0.43210161  0.30062995
   0.28524862  0.51566086  0.29642005
   0.32831732  0.67008505  0.30016504
   0.28029922  0.74017343  0.29366488
   0.19258026  0.66202713  0.29982589
   0.15313622  0.50995274  0.29862399
   0.19410979  0.22900158  0.34920050
   0.40685601  0.75292920  0.33673992
   0.45723760  0.68055545  0.34523142
   0.54181785  0.78036386  0.37119189
   0.31841896  0.46234793  0.31188212
   0.31075861  0.85277764  0.30803800
   0.16016072  0.71122815  0.32045006
   0.05488764  0.33696165  0.32063587
   0.24696492  0.28760888  0.38030835
   0.14848575  0.12938580  0.37094525
   0.21604903  0.20446611  0.30498122
   0.44497820  0.85636485  0.31172855
   0.42350506  0.58617366  0.37521411
   0.43289003  0.83790978  0.42082637
   0.53914550  0.81731866  0.41862019
   0.57800333  0.72703129  0.37378089
   0.57436954  0.87420486  0.34070468
   0.46351445  0.63686137  0.29939394
   0.07084235  0.43702965  0.31192154
   0.15504469  0.30940955  0.33729259
   0.38331769  0.78221724  0.39666946
 
 position of ions in cartesian coordinates  (Angst):
  -0.00001358  1.56612822  4.29100095
  -1.35631358  3.91530873  4.29100095
  -2.71261357  6.26448923  4.29100095
  -4.06891357  8.61366974  4.29100095
   2.71258641  1.56612822  4.29100095
   1.35628642  3.91530873  4.29100095
  -0.00001358  6.26448923  4.29100095
  -1.35631358  8.61366974  4.29100095
   5.42518640  1.56612822  4.29100095
   4.06888641  3.91530873  4.29100095
   2.71258641  6.26448923  4.29100095
   1.35628642  8.61366974  4.29100095
   8.13778640  1.56612822  4.29100095
   6.78148640  3.91530873  4.29100095
   5.42518640  6.26448923  4.29100095
   4.06888641  8.61366974  4.29100095
  10.85038639  1.56612822  4.29100095
   9.49408639  3.91530873  4.29100095
   8.13778640  6.26448923  4.29100095
   6.78148640  8.61366974  4.29100095
  13.56298638  1.56612822  4.29100095
  12.20668639  3.91530873  4.29100095
  10.85038639  6.26448923  4.29100095
   9.49408639  8.61366974  4.29100095
  16.27558638  1.56612822  4.29100095
  14.91928638  3.91530873  4.29100095
  13.56298638  6.26448923  4.29100095
  12.20668639  8.61366974  4.29100095
   1.35631362  0.78305235  2.14564370
   0.00001362  3.13223285  2.14564370
  -1.35628637  5.48141336  2.14564370
  -2.71258637  7.83059386  2.14564370
   4.06891361  0.78305235  2.14564370
   2.71261361  3.13223285  2.14564370
   1.35631362  5.48141336  2.14564370
   0.00001362  7.83059386  2.14564370
   6.78151360  0.78305235  2.14564370
   5.42521361  3.13223285  2.14564370
   4.06891361  5.48141336  2.14564370
   2.71261361  7.83059386  2.14564370
   9.49411360  0.78305235  2.14564370
   8.13781360  3.13223285  2.14564370
   6.78151360  5.48141336  2.14564370
   5.42521361  7.83059386  2.14564370
  12.20671359  0.78305235  2.14564370
  10.85041359  3.13223285  2.14564370
   9.49411360  5.48141336  2.14564370
   8.13781360  7.83059386  2.14564370
  14.91931358  0.78305235  2.14564370
  13.56301359  3.13223285  2.14564370
  12.20671359  5.48141336  2.14564370
  10.85041359  7.83059386  2.14564370
  17.63191357  0.78305235  2.14564370
  16.27561358  3.13223285  2.14564370
  14.91931358  5.48141336  2.14564370
  13.56301359  7.83059386  2.14564370
  -0.00001358  1.56612822  0.00000046
  -1.35631358  3.91530873  0.00000046
  -2.71261357  6.26448923  0.00000046
  -4.06891357  8.61366974  0.00000046
   2.71258641  1.56612822  0.00000046
   1.35628642  3.91530873  0.00000046
  -0.00001358  6.26448923  0.00000046
  -1.35631358  8.61366974  0.00000046
   5.42518640  1.56612822  0.00000046
   4.06888641  3.91530873  0.00000046
   2.71258641  6.26448923  0.00000046
   1.35628642  8.61366974  0.00000046
   8.13778640  1.56612822  0.00000046
   6.78148640  3.91530873  0.00000046
   5.42518640  6.26448923  0.00000046
   4.06888641  8.61366974  0.00000046
  10.85038639  1.56612822  0.00000046
   9.49408639  3.91530873  0.00000046
   8.13778640  6.26448923  0.00000046
   6.78148640  8.61366974  0.00000046
  13.56298638  1.56612822  0.00000046
  12.20668639  3.91530873  0.00000046
  10.85038639  6.26448923  0.00000046
   9.49408639  8.61366974  0.00000046
  16.27558638  1.56612822  0.00000046
  14.91928638  3.91530873  0.00000046
  13.56298638  6.26448923  0.00000046
  12.20668639  8.61366974  0.00000046
   1.39075050  4.06033875  6.44441127
   2.61879448  4.84552179  6.35416625
   2.59880943  6.29660295  6.43444523
   1.30678878  6.95520395  6.29510553
   0.06512285  6.22088489  6.42717500
   0.14118557  4.79188411  6.40141076
   2.44341611  2.15186423  7.48558690
   3.64067184  7.07506636  7.21847751
   4.98996947  6.39499038  7.40050429
   6.05451561  7.33286230  7.95700214
   3.53787290  4.34455496  6.68561684
   1.27425734  8.01331446  6.60321292
  -0.81739126  6.68321321  6.86928216
  -0.78586682  3.16633492  6.87326521
   3.12908361  2.70258067  8.15242602
   2.11753329  1.21580242  7.95171506
   2.99311265  1.92131122  6.53768662
   3.80338436  8.04702247  6.68232481
   4.86148950  5.50811096  8.04322398
   3.67397435  7.87360531  9.02098476
   5.80328528  7.68011625  8.97369218
   7.03095259  6.83171097  8.01250102
   6.16350747  8.21466008  7.30346739
   5.34620479  5.98440929  6.41791567
  -1.02580457  4.10664613  6.68646178
   1.26541084  2.90743552  7.23032465
   3.03482802  7.35027796  8.50314856
 


--------------------------------------------------------------------------------------------------------


 k-point  1 :   0.0000 0.0000 0.0000  plane waves:   82945
 k-point  2 :   0.3333 0.0000 0.0000  plane waves:   82944
 k-point  3 :   0.0000 0.3333 0.0000  plane waves:   82913
 k-point  4 :   0.3333 0.3333 0.0000  plane waves:   82924
 k-point  5 :  -0.3333 0.3333 0.0000  plane waves:   82907

 maximum and minimum number of plane-waves per node :     82945    82907

 maximum number of plane-waves:     82945
 maximum index in each direction: 
   IXMAX=   33   IYMAX=   18   IZMAX=   37
   IXMIN=  -33   IYMIN=  -19   IZMIN=  -37


 serial   3D FFT for wavefunctions
 parallel 3D FFT for charge:
    minimum data exchange during FFTs selected (reduces bandwidth)


 total amount of memory used by VASP MPI-rank0   177293. kBytes
=======================================================================

   base      :      30000. kBytes
   nonlr-proj:      36877. kBytes
   fftplans  :       6642. kBytes
   grid      :      34272. kBytes
   one-center:       1726. kBytes
   wavefun   :      67776. kBytes
 
     INWAV:  cpu time    0.0000: real time    0.0003
 Broyden mixing: mesh for mixing (old mesh)
   NGX = 65   NGY = 37   NGZ = 75
  (NGX  =200   NGY  =112   NGZ  =224)
  gives a total of 180375 points

 initial charge density was supplied:
 charge density of overlapping atoms calculated
 number of electron     744.0000000 magnetization 
 keeping initial charge density in first step


--------------------------------------------------------------------------------------------------------


 Maximum index for non-local projection operator         2304
 Maximum index for augmentation-charges          841 (set IRDMAX)


--------------------------------------------------------------------------------------------------------


 First call to EWALD:  gamma=   0.113
 Maximum number of real-space cells 3x 4x 2
 Maximum number of reciprocal cells 3x 2x 4

    FEWALD:  cpu time    0.0038: real time    0.0038


--------------------------------------- Iteration      1(   1)  ---------------------------------------


    POTLOK:  cpu time    0.1050: real time    0.1187
    SETDIJ:  cpu time    0.0129: real time    0.0672
     EDDAV:  cpu time   18.4754: real time   18.5371
       DOS:  cpu time    0.0023: real time    0.0053
    --------------------------------------------
      LOOP:  cpu time   18.5957: real time   18.7283

 eigenvalue-minimisations  :  4800
 total energy-change (2. order) : 0.4355624E+04  (-0.2907294E+05)
 number of electron     744.0000000 magnetization 
 augmentation part      744.0000000 magnetization 

 DIPCOR: dipole corrections for dipol
 direction  3 min pos   143,
 dipolmoment           0.000000      0.000000     -0.001045 electrons x Angstroem
 Tr[quadrupol]    -29845.754076

 energy correction for charged system         0.000000 eV
 dipol+quadrupol energy correction           -0.000000 eV
 added-field ion interaction         -0.009079 eV  (added to PSCEN)


 Free energy of the ion-electron system (eV)
  ---------------------------------------------------
  alpha Z        PSCENC =       997.20075882
  Ewald energy   TEWEN  =    167495.93880432
  -Hartree energ DENC   =   -209557.27627348
  -exchange      EXHF   =         0.00000000
  -V(xc)+E(xc)   XCENC  =     -2466.59756776
  PAW double counting   =     41018.52895095   -36935.86906643
  entropy T*S    EENTRO =        -0.02527947
  eigenvalues    EBANDS =      2650.49191669
  atomic energy  EATOM  =     41153.23212135
  Solvation  Ediel_sol  =         0.00000000
  ---------------------------------------------------
  free energy    TOTEN  =      4355.62436500 eV

  energy without entropy =     4355.64964447  energy(sigma->0) =     4355.63700474


--------------------------------------------------------------------------------------------------------




--------------------------------------- Iteration      1(   2)  ---------------------------------------


     EDDAV:  cpu time   19.7434: real time   19.7525
       DOS:  cpu time    0.0008: real time    0.0008
    --------------------------------------------
      LOOP:  cpu time   19.7442: real time   19.7533

 eigenvalue-minimisations  :  5280
 total energy-change (2. order) :-0.4847937E+04  (-0.4511012E+04)
 number of electron     744.0000000 magnetization 
 augmentation part      744.0000000 magnetization 

 DIPCOR: dipole corrections for dipol
 direction  3 min pos   143,
 dipolmoment           0.000000      0.000000     -0.001045 electrons x Angstroem
 Tr[quadrupol]    -29845.754076

 energy correction for charged system         0.000000 eV
 dipol+quadrupol energy correction           -0.000000 eV
 added-field ion interaction         -0.009079 eV  (added to PSCEN)


 Free energy of the ion-electron system (eV)
  ---------------------------------------------------
  alpha Z        PSCENC =       997.20075882
  Ewald energy   TEWEN  =    167495.93880432
  -Hartree energ DENC   =   -209557.27627348
  -exchange      EXHF   =         0.00000000
  -V(xc)+E(xc)   XCENC  =     -2466.59756776
  PAW double counting   =     41018.52895095   -36935.86906643
  entropy T*S    EENTRO =        -0.04101369
  eigenvalues    EBANDS =     -2197.42887564
  atomic energy  EATOM  =     41153.23212135
  Solvation  Ediel_sol  =         0.00000000
  ---------------------------------------------------
  free energy    TOTEN  =      -492.31216155 eV

  energy without entropy =     -492.27114786  energy(sigma->0) =     -492.29165470


--------------------------------------------------------------------------------------------------------




--------------------------------------- Iteration      1(   3)  ---------------------------------------


     EDDAV:  cpu time   33.6050: real time   33.6230
       DOS:  cpu time    0.0008: real time    0.0010
    --------------------------------------------
      LOOP:  cpu time   33.6058: real time   33.6240

 eigenvalue-minimisations  :  8400
 total energy-change (2. order) :-0.4388462E+03  (-0.4177370E+03)
 number of electron     744.0000000 magnetization 
 augmentation part      744.0000000 magnetization 

 DIPCOR: dipole corrections for dipol
 direction  3 min pos   143,
 dipolmoment           0.000000      0.000000     -0.001045 electrons x Angstroem
 Tr[quadrupol]    -29845.754076

 energy correction for charged system         0.000000 eV
 dipol+quadrupol energy correction           -0.000000 eV
 added-field ion interaction         -0.009079 eV  (added to PSCEN)


 Free energy of the ion-electron system (eV)
  ---------------------------------------------------
  alpha Z        PSCENC =       997.20075882
  Ewald energy   TEWEN  =    167495.93880432
  -Hartree energ DENC   =   -209557.27627348
  -exchange      EXHF   =         0.00000000
  -V(xc)+E(xc)   XCENC  =     -2466.59756776
  PAW double counting   =     41018.52895095   -36935.86906643
  entropy T*S    EENTRO =        -0.03363581
  eigenvalues    EBANDS =     -2636.28249195
  atomic energy  EATOM  =     41153.23212135
  Solvation  Ediel_sol  =         0.00000000
  ---------------------------------------------------
  free energy    TOTEN  =      -931.15839999 eV

  energy without entropy =     -931.12476417  energy(sigma->0) =     -931.14158208


--------------------------------------------------------------------------------------------------------




--------------------------------------- Iteration      1(   4)  ---------------------------------------


     EDDAV:  cpu time   22.8250: real time   22.8336
       DOS:  cpu time    0.0009: real time    0.0009
    --------------------------------------------
      LOOP:  cpu time   22.8259: real time   22.8345

 eigenvalue-minimisations  :  6240
 total energy-change (2. order) :-0.2076511E+02  (-0.2031208E+02)
 number of electron     744.0000000 magnetization 
 augmentation part      744.0000000 magnetization 

 DIPCOR: dipole corrections for dipol
 direction  3 min pos   143,
 dipolmoment           0.000000      0.000000     -0.001045 electrons x Angstroem
 Tr[quadrupol]    -29845.754076

 energy correction for charged system         0.000000 eV
 dipol+quadrupol energy correction           -0.000000 eV
 added-field ion interaction         -0.009079 eV  (added to PSCEN)


 Free energy of the ion-electron system (eV)
  ---------------------------------------------------
  alpha Z        PSCENC =       997.20075882
  Ewald energy   TEWEN  =    167495.93880432
  -Hartree energ DENC   =   -209557.27627348
  -exchange      EXHF   =         0.00000000
  -V(xc)+E(xc)   XCENC  =     -2466.59756776
  PAW double counting   =     41018.52895095   -36935.86906643
  entropy T*S    EENTRO =        -0.03004039
  eigenvalues    EBANDS =     -2657.05119428
  atomic energy  EATOM  =     41153.23212135
  Solvation  Ediel_sol  =         0.00000000
  ---------------------------------------------------
  free energy    TOTEN  =      -951.92350690 eV

  energy without entropy =     -951.89346651  energy(sigma->0) =     -951.90848670


--------------------------------------------------------------------------------------------------------




--------------------------------------- Iteration      1(   5)  ---------------------------------------


     EDDAV:  cpu time   25.0560: real time   25.0659
       DOS:  cpu time    0.0011: real time    0.0011
    --------------------------------------------
      LOOP:  cpu time   25.0571: real time   25.0670

 eigenvalue-minimisations  :  6960
 total energy-change (2. order) :-0.7071765E+00  (-0.7004472E+00)
 number of electron     744.0000000 magnetization 
 augmentation part      744.0000000 magnetization 

 DIPCOR: dipole corrections for dipol
 direction  3 min pos   143,
 dipolmoment           0.000000      0.000000     -0.001045 electrons x Angstroem
 Tr[quadrupol]    -29845.754076

 energy correction for charged system         0.000000 eV
 dipol+quadrupol energy correction           -0.000000 eV
 added-field ion interaction         -0.009079 eV  (added to PSCEN)


 Free energy of the ion-electron system (eV)
  ---------------------------------------------------
  alpha Z        PSCENC =       997.20075882
  Ewald energy   TEWEN  =    167495.93880432
  -Hartree energ DENC   =   -209557.27627348
  -exchange      EXHF   =         0.00000000
  -V(xc)+E(xc)   XCENC  =     -2466.59756776
  PAW double counting   =     41018.52895095   -36935.86906643
  entropy T*S    EENTRO =        -0.02936547
  eigenvalues    EBANDS =     -2657.75904572
  atomic energy  EATOM  =     41153.23212135
  Solvation  Ediel_sol  =         0.00000000
  ---------------------------------------------------
  free energy    TOTEN  =      -952.63068341 eV

  energy without entropy =     -952.60131794  energy(sigma->0) =     -952.61600068


--------------------------------------------------------------------------------------------------------




--------------------------------------- Iteration      1(   6)  ---------------------------------------


     EDDAV:  cpu time   24.9096: real time   24.9195
       DOS:  cpu time    0.0008: real time    0.0008
    --------------------------------------------
      LOOP:  cpu time   24.9104: real time   24.9202

 eigenvalue-minimisations  :  6864
 total energy-change (2. order) :-0.2958993E-01  (-0.2946243E-01)
 number of electron     744.0000000 magnetization 
 augmentation part      744.0000000 magnetization 

 DIPCOR: dipole corrections for dipol
 direction  3 min pos   143,
 dipolmoment           0.000000      0.000000     -0.001045 electrons x Angstroem
 Tr[quadrupol]    -29845.754076

 energy correction for charged system         0.000000 eV
 dipol+quadrupol energy correction           -0.000000 eV
 added-field ion interaction         -0.009079 eV  (added to PSCEN)


 Free energy of the ion-electron system (eV)
  ---------------------------------------------------
  alpha Z        PSCENC =       997.20075882
  Ewald energy   TEWEN  =    167495.93880432
  -Hartree energ DENC   =   -209557.27627348
  -exchange      EXHF   =         0.00000000
  -V(xc)+E(xc)   XCENC  =     -2466.59756776
  PAW double counting   =     41018.52895095   -36935.86906643
  entropy T*S    EENTRO =        -0.02932626
  eigenvalues    EBANDS =     -2657.78867486
  atomic energy  EATOM  =     41153.23212135
  Solvation  Ediel_sol  =         0.00000000
  ---------------------------------------------------
  free energy    TOTEN  =      -952.66027334 eV

  energy without entropy =     -952.63094708  energy(sigma->0) =     -952.64561021


--------------------------------------------------------------------------------------------------------




--------------------------------------- Iteration      1(   7)  ---------------------------------------


     EDDAV:  cpu time   27.6507: real time   27.6603
       DOS:  cpu time    0.0025: real time    0.0025
    CHARGE:  cpu time    0.8547: real time    0.8585
    MIXING:  cpu time    0.0031: real time    0.0039
    --------------------------------------------
      LOOP:  cpu time   28.5111: real time   28.5253

 eigenvalue-minimisations  :  7776
 total energy-change (2. order) :-0.1598777E-02  (-0.1595328E-02)
 number of electron     744.0000088 magnetization 
 augmentation part      215.2595051 magnetization 

 DIPCOR: dipole corrections for dipol
 direction  3 min pos   143,
 dipolmoment           0.000000      0.000000     -0.001045 electrons x Angstroem
 Tr[quadrupol]    -29845.754076

 energy correction for charged system         0.000000 eV
 dipol+quadrupol energy correction           -0.000000 eV
 added-field ion interaction         -0.009079 eV  (added to PSCEN)


 Broyden mixing:
  rms(total) = 0.96410E+01    rms(broyden)= 0.96406E+01
  rms(prec ) = 0.98787E+01
  weight for this iteration     100.00

 Free energy of the ion-electron system (eV)
  ---------------------------------------------------
  alpha Z        PSCENC =       997.20075882
  Ewald energy   TEWEN  =    167495.93880432
  -Hartree energ DENC   =   -209557.27627348
  -exchange      EXHF   =         0.00000000
  -V(xc)+E(xc)   XCENC  =     -2466.59756776
  PAW double counting   =     41018.52895095   -36935.86906643
  entropy T*S    EENTRO =        -0.02931391
  eigenvalues    EBANDS =     -2657.79028598
  atomic energy  EATOM  =     41153.23212135
  Solvation  Ediel_sol  =         0.00000000
  ---------------------------------------------------
  free energy    TOTEN  =      -952.66187212 eV

  energy without entropy =     -952.63255820  energy(sigma->0) =     -952.64721516


--------------------------------------------------------------------------------------------------------




--------------------------------------- Iteration      1(   8)  ---------------------------------------


    POTLOK:  cpu time    0.0897: real time    0.0899
    SETDIJ:  cpu time    0.0103: real time    0.0103
    EDDIAG:  cpu time    3.5296: real time    3.5358
  RMM-DIIS:  cpu time    9.7467: real time    9.7536
    ORTHCH:  cpu time    0.8453: real time    0.8456
       DOS:  cpu time    0.0007: real time    0.0007
    CHARGE:  cpu time    0.8600: real time    0.8604
    MIXING:  cpu time    0.0035: real time    0.0068
    --------------------------------------------
      LOOP:  cpu time   15.0858: real time   15.1031

 eigenvalue-minimisations  :  4802
 total energy-change (2. order) : 0.5719719E+02  (-0.1755176E+02)
 number of electron     744.0000111 magnetization 
 augmentation part      228.8666066 magnetization 

 DIPCOR: dipole corrections for dipol
 direction  3 min pos   149,
 dipolmoment           0.000000      0.000000      0.430286 electrons x Angstroem
 Tr[quadrupol]    -29855.874406

 energy correction for charged system         0.000000 eV
 dipol+quadrupol energy correction           -0.004421 eV
 added-field ion interaction         12.514072 eV  (added to PSCEN)


 Broyden mixing:
  rms(total) = 0.35240E+01    rms(broyden)= 0.35238E+01
  rms(prec ) = 0.39125E+01
  weight for this iteration     100.00

 eigenvalues of (default mixing * dielectric matrix)
  average eigenvalue GAMMA=   1.3647
  1.3647

 Free energy of the ion-electron system (eV)
  ---------------------------------------------------
  alpha Z        PSCENC =      1009.71948860
  Ewald energy   TEWEN  =    167495.93880432
  -Hartree energ DENC   =   -209458.46239940
  -exchange      EXHF   =         0.00000000
  -V(xc)+E(xc)   XCENC  =     -2464.14821460
  PAW double counting   =     47663.83010979   -43678.01659041
  entropy T*S    EENTRO =        -0.03233928
  eigenvalues    EBANDS =     -2617.52565988
  atomic energy  EATOM  =     41153.23212135
  Solvation  Ediel_sol  =         0.00000000
  ---------------------------------------------------
  free energy    TOTEN  =      -895.46467952 eV

  energy without entropy =     -895.43234024  energy(sigma->0) =     -895.44850988


--------------------------------------------------------------------------------------------------------




--------------------------------------- Iteration      1(   9)  ---------------------------------------


    POTLOK:  cpu time    0.0919: real time    0.0926
    SETDIJ:  cpu time    0.0103: real time    0.0103
    EDDIAG:  cpu time    3.5620: real time    3.5636
  RMM-DIIS:  cpu time    9.9046: real time    9.9085
    ORTHCH:  cpu time    0.8448: real time    0.8452
       DOS:  cpu time    0.0007: real time    0.0007
    CHARGE:  cpu time    0.8553: real time    0.8553
    MIXING:  cpu time    0.0031: real time    0.0031
    --------------------------------------------
      LOOP:  cpu time   15.2728: real time   15.2793

 eigenvalue-minimisations  :  4976
 total energy-change (2. order) :-0.2206199E+03  (-0.2690532E+02)
 number of electron     744.0000108 magnetization 
 augmentation part      244.7913892 magnetization 

 DIPCOR: dipole corrections for dipol
 direction  3 min pos   146,
 dipolmoment           0.000000      0.000000     -4.345923 electrons x Angstroem
 Tr[quadrupol]    -29849.483392

 energy correction for charged system         0.000000 eV
 dipol+quadrupol energy correction           -0.450949 eV
 added-field ion interaction        -82.065931 eV  (added to PSCEN)


 Broyden mixing:
  rms(total) = 0.11818E+02    rms(broyden)= 0.11818E+02
  rms(prec ) = 0.18754E+02
  weight for this iteration     100.00

 eigenvalues of (default mixing * dielectric matrix)
  average eigenvalue GAMMA=   0.8160
  1.4938  0.1382

 Free energy of the ion-electron system (eV)
  ---------------------------------------------------
  alpha Z        PSCENC =       914.69295759
  Ewald energy   TEWEN  =    167495.93880432
  -Hartree energ DENC   =   -209324.35508253
  -exchange      EXHF   =         0.00000000
  -V(xc)+E(xc)   XCENC  =     -2459.61188601
  PAW double counting   =     52790.80385068   -48868.92549178
  entropy T*S    EENTRO =        -0.03822636
  eigenvalues    EBANDS =     -2817.82161214
  atomic energy  EATOM  =     41153.23212135
  Solvation  Ediel_sol  =         0.00000000
  ---------------------------------------------------
  free energy    TOTEN  =     -1116.08456488 eV

  energy without entropy =    -1116.04633852  energy(sigma->0) =    -1116.06545170


--------------------------------------------------------------------------------------------------------




--------------------------------------- Iteration      1(  10)  ---------------------------------------


    POTLOK:  cpu time    0.0953: real time    0.0955
    SETDIJ:  cpu time    0.0104: real time    0.0104
    EDDIAG:  cpu time    3.4918: real time    3.4933
  RMM-DIIS:  cpu time    9.7189: real time    9.7224
    ORTHCH:  cpu time    0.8416: real time    0.8419
       DOS:  cpu time    0.0008: real time    0.0008
    CHARGE:  cpu time    0.8721: real time    0.8721
    MIXING:  cpu time    0.0033: real time    0.0033
    --------------------------------------------
      LOOP:  cpu time   15.0341: real time   15.0397

 eigenvalue-minimisations  :  4809
 total energy-change (2. order) : 0.1868995E+03  (-0.9854075E+01)
 number of electron     744.0000113 magnetization 
 augmentation part      237.7238488 magnetization 

 DIPCOR: dipole corrections for dipol
 direction  3 min pos   151,
 dipolmoment           0.000000      0.000000      0.779504 electrons x Angstroem
 Tr[quadrupol]    -29866.041612

 energy correction for charged system         0.000000 eV
 dipol+quadrupol energy correction           -0.014508 eV
 added-field ion interaction         27.970880 eV  (added to PSCEN)


 Broyden mixing:
  rms(total) = 0.54830E+01    rms(broyden)= 0.54830E+01
  rms(prec ) = 0.84615E+01
  weight for this iteration     100.00

 eigenvalues of (default mixing * dielectric matrix)
  average eigenvalue GAMMA=   0.6144
  1.5363  0.1967  0.1104

 Free energy of the ion-electron system (eV)
  ---------------------------------------------------
  alpha Z        PSCENC =      1025.16620963
  Ewald energy   TEWEN  =    167495.93880432
  -Hartree energ DENC   =   -209538.39480289
  -exchange      EXHF   =         0.00000000
  -V(xc)+E(xc)   XCENC  =     -2459.49714424
  PAW double counting   =     53957.57408239   -50047.74308936
  entropy T*S    EENTRO =        -0.05383841
  eigenvalues    EBANDS =     -2515.40737743
  atomic energy  EATOM  =     41153.23212135
  Solvation  Ediel_sol  =         0.00000000
  ---------------------------------------------------
  free energy    TOTEN  =      -929.18503464 eV

  energy without entropy =     -929.13119623  energy(sigma->0) =     -929.15811544


--------------------------------------------------------------------------------------------------------




--------------------------------------- Iteration      1(  11)  ---------------------------------------


    POTLOK:  cpu time    0.0894: real time    0.0902
    SETDIJ:  cpu time    0.0102: real time    0.0102
    EDDIAG:  cpu time    3.5735: real time    3.5747
  RMM-DIIS:  cpu time    9.5852: real time    9.5937
    ORTHCH:  cpu time    0.8499: real time    0.8503
       DOS:  cpu time    0.0007: real time    0.0007
    CHARGE:  cpu time    0.8607: real time    0.8607
    MIXING:  cpu time    0.0033: real time    0.0033
    --------------------------------------------
      LOOP:  cpu time   14.9730: real time   14.9838

 eigenvalue-minimisations  :  4822
 total energy-change (2. order) : 0.4388063E+02  (-0.3320065E+01)
 number of electron     744.0000111 magnetization 
 augmentation part      233.9712444 magnetization 

 DIPCOR: dipole corrections for dipol
 direction  3 min pos   152,
 dipolmoment           0.000000      0.000000     -1.267992 electrons x Angstroem
 Tr[quadrupol]    -29864.740143

 energy correction for charged system         0.000000 eV
 dipol+quadrupol energy correction           -0.038388 eV
 added-field ion interaction        -49.810318 eV  (added to PSCEN)


 Broyden mixing:
  rms(total) = 0.14266E+01    rms(broyden)= 0.14266E+01
  rms(prec ) = 0.22910E+01
  weight for this iteration     100.00

 eigenvalues of (default mixing * dielectric matrix)
  average eigenvalue GAMMA=   0.5940
  1.5281  0.5487  0.2079  0.0911

 Free energy of the ion-electron system (eV)
  ---------------------------------------------------
  alpha Z        PSCENC =       947.36113101
  Ewald energy   TEWEN  =    167495.93880432
  -Hartree energ DENC   =   -209639.24183286
  -exchange      EXHF   =         0.00000000
  -V(xc)+E(xc)   XCENC  =     -2459.65610765
  PAW double counting   =     54620.83676242   -50717.88652771
  entropy T*S    EENTRO =        -0.02863672
  eigenvalues    EBANDS =     -2285.86011997
  atomic energy  EATOM  =     41153.23212135
  Solvation  Ediel_sol  =         0.00000000
  ---------------------------------------------------
  free energy    TOTEN  =      -885.30440582 eV

  energy without entropy =     -885.27576910  energy(sigma->0) =     -885.29008746


--------------------------------------------------------------------------------------------------------




--------------------------------------- Iteration      1(  12)  ---------------------------------------


    POTLOK:  cpu time    0.0940: real time    0.0949
    SETDIJ:  cpu time    0.0103: real time    0.0103
    EDDIAG:  cpu time    3.5175: real time    3.5187
  RMM-DIIS:  cpu time   10.6523: real time   10.6564
    ORTHCH:  cpu time    0.8444: real time    0.8446
       DOS:  cpu time    0.0008: real time    0.0008
    CHARGE:  cpu time    0.8593: real time    0.8593
    MIXING:  cpu time    0.0036: real time    0.0036
    --------------------------------------------
      LOOP:  cpu time   15.9822: real time   15.9885

 eigenvalue-minimisations  :  5293
 total energy-change (2. order) :-0.1275541E+01  (-0.1417804E+01)
 number of electron     744.0000115 magnetization 
 augmentation part      234.2853230 magnetization 

 DIPCOR: dipole corrections for dipol
 direction  3 min pos   153,
 dipolmoment           0.000000      0.000000     -1.134954 electrons x Angstroem
 Tr[quadrupol]    -29867.107995

 energy correction for charged system         0.000000 eV
 dipol+quadrupol energy correction           -0.030755 eV
 added-field ion interaction        -48.442939 eV  (added to PSCEN)


 Broyden mixing:
  rms(total) = 0.15696E+01    rms(broyden)= 0.15696E+01
  rms(prec ) = 0.24562E+01
  weight for this iteration     100.00

 eigenvalues of (default mixing * dielectric matrix)
  average eigenvalue GAMMA=   0.5587
  1.5283  0.7938  0.0917  0.1964  0.1833

 Free energy of the ion-electron system (eV)
  ---------------------------------------------------
  alpha Z        PSCENC =       948.73614292
  Ewald energy   TEWEN  =    167495.93880432
  -Hartree energ DENC   =   -209677.03394364
  -exchange      EXHF   =         0.00000000
  -V(xc)+E(xc)   XCENC  =     -2459.35032260
  PAW double counting   =     55124.11898789   -51227.46300355
  entropy T*S    EENTRO =        -0.04088261
  eigenvalues    EBANDS =     -2244.71785095
  atomic energy  EATOM  =     41153.23212135
  Solvation  Ediel_sol  =         0.00000000
  ---------------------------------------------------
  free energy    TOTEN  =      -886.57994687 eV

  energy without entropy =     -886.53906426  energy(sigma->0) =     -886.55950556


--------------------------------------------------------------------------------------------------------




--------------------------------------- Iteration      1(  13)  ---------------------------------------


    POTLOK:  cpu time    0.0899: real time    0.0906
    SETDIJ:  cpu time    0.0102: real time    0.0104
    EDDIAG:  cpu time    3.5808: real time    3.5820
  RMM-DIIS:  cpu time    9.9773: real time    9.9812
    ORTHCH:  cpu time    0.8434: real time    0.8437
       DOS:  cpu time    0.0008: real time    0.0008
    CHARGE:  cpu time    0.8586: real time    0.8589
    MIXING:  cpu time    0.0035: real time    0.0035
    --------------------------------------------
      LOOP:  cpu time   15.3645: real time   15.3711

 eigenvalue-minimisations  :  4991
 total energy-change (2. order) : 0.4283322E+01  (-0.3247984E+00)
 number of electron     744.0000115 magnetization 
 augmentation part      234.1446405 magnetization 

 DIPCOR: dipole corrections for dipol
 direction  3 min pos   153,
 dipolmoment           0.000000      0.000000     -0.955762 electrons x Angstroem
 Tr[quadrupol]    -29868.483631

 energy correction for charged system         0.000000 eV
 dipol+quadrupol energy correction           -0.021810 eV
 added-field ion interaction        -40.794528 eV  (added to PSCEN)


 Broyden mixing:
  rms(total) = 0.55412E+00    rms(broyden)= 0.55411E+00
  rms(prec ) = 0.69606E+00
  weight for this iteration     100.00

 eigenvalues of (default mixing * dielectric matrix)
  average eigenvalue GAMMA=   0.6123
  1.5690  0.9411  0.6894  0.2267  0.0918  0.1555

 Free energy of the ion-electron system (eV)
  ---------------------------------------------------
  alpha Z        PSCENC =       956.39349903
  Ewald energy   TEWEN  =    167495.93880432
  -Hartree energ DENC   =   -209699.13172817
  -exchange      EXHF   =         0.00000000
  -V(xc)+E(xc)   XCENC  =     -2458.73889999
  PAW double counting   =     55643.51915792   -51753.26981328
  entropy T*S    EENTRO =        -0.03465206
  eigenvalues    EBANDS =     -2220.20511405
  atomic energy  EATOM  =     41153.23212135
  Solvation  Ediel_sol  =         0.00000000
  ---------------------------------------------------
  free energy    TOTEN  =      -882.29662494 eV

  energy without entropy =     -882.26197288  energy(sigma->0) =     -882.27929891


--------------------------------------------------------------------------------------------------------




--------------------------------------- Iteration      1(  14)  ---------------------------------------


    POTLOK:  cpu time    0.0900: real time    0.0904
    SETDIJ:  cpu time    0.0142: real time    0.0142
    EDDIAG:  cpu time    3.4775: real time    3.4787
  RMM-DIIS:  cpu time    9.6556: real time    9.6592
    ORTHCH:  cpu time    0.8406: real time    0.8410
       DOS:  cpu time    0.0007: real time    0.0007
    CHARGE:  cpu time    0.8576: real time    0.8579
    MIXING:  cpu time    0.0036: real time    0.0036
    --------------------------------------------
      LOOP:  cpu time   14.9399: real time   14.9459

 eigenvalue-minimisations  :  4867
 total energy-change (2. order) :-0.1740650E+00  (-0.2327793E+00)
 number of electron     744.0000115 magnetization 
 augmentation part      234.1550106 magnetization 

 DIPCOR: dipole corrections for dipol
 direction  3 min pos   153,
 dipolmoment           0.000000      0.000000     -0.953936 electrons x Angstroem
 Tr[quadrupol]    -29869.976676

 energy correction for charged system         0.000000 eV
 dipol+quadrupol energy correction           -0.021727 eV
 added-field ion interaction        -40.716591 eV  (added to PSCEN)


 Broyden mixing:
  rms(total) = 0.67477E+00    rms(broyden)= 0.67476E+00
  rms(prec ) = 0.83531E+00
  weight for this iteration     100.00

 eigenvalues of (default mixing * dielectric matrix)
  average eigenvalue GAMMA=   0.6918
  1.9343  1.3825  0.8172  0.0918  0.2300  0.2300  0.1570

 Free energy of the ion-electron system (eV)
  ---------------------------------------------------
  alpha Z        PSCENC =       956.47151922
  Ewald energy   TEWEN  =    167495.93880432
  -Hartree energ DENC   =   -209736.38819920
  -exchange      EXHF   =         0.00000000
  -V(xc)+E(xc)   XCENC  =     -2458.13960198
  PAW double counting   =     56178.56770060   -52294.59955040
  entropy T*S    EENTRO =        -0.03509050
  eigenvalues    EBANDS =     -2177.51839329
  atomic energy  EATOM  =     41153.23212135
  Solvation  Ediel_sol  =         0.00000000
  ---------------------------------------------------
  free energy    TOTEN  =      -882.47068990 eV

  energy without entropy =     -882.43559940  energy(sigma->0) =     -882.45314465


--------------------------------------------------------------------------------------------------------




--------------------------------------- Iteration      1(  15)  ---------------------------------------


    POTLOK:  cpu time    0.0915: real time    0.0921
    SETDIJ:  cpu time    0.0103: real time    0.0103
    EDDIAG:  cpu time    3.5849: real time    3.5862
  RMM-DIIS:  cpu time    9.7064: real time    9.7104
    ORTHCH:  cpu time    0.8365: real time    0.8368
       DOS:  cpu time    0.0007: real time    0.0007
    CHARGE:  cpu time    0.8574: real time    0.8578
    MIXING:  cpu time    0.0040: real time    0.0040
    --------------------------------------------
      LOOP:  cpu time   15.0916: real time   15.0983

 eigenvalue-minimisations  :  4857
 total energy-change (2. order) : 0.5861952E+00  (-0.1006074E+00)
 number of electron     744.0000114 magnetization 
 augmentation part      234.0830715 magnetization 

 DIPCOR: dipole corrections for dipol
 direction  3 min pos   153,
 dipolmoment           0.000000      0.000000     -0.921179 electrons x Angstroem
 Tr[quadrupol]    -29872.243667

 energy correction for charged system         0.000000 eV
 dipol+quadrupol energy correction           -0.020261 eV
 added-field ion interaction        -39.318414 eV  (added to PSCEN)


 Broyden mixing:
  rms(total) = 0.35794E+00    rms(broyden)= 0.35794E+00
  rms(prec ) = 0.47837E+00
  weight for this iteration     100.00

 eigenvalues of (default mixing * dielectric matrix)
  average eigenvalue GAMMA=   0.6604
  1.9942  1.4127  0.8609  0.0918  0.3093  0.1539  0.2511  0.2092

 Free energy of the ion-electron system (eV)
  ---------------------------------------------------
  alpha Z        PSCENC =       957.87116249
  Ewald energy   TEWEN  =    167495.93880432
  -Hartree energ DENC   =   -209791.22990281
  -exchange      EXHF   =         0.00000000
  -V(xc)+E(xc)   XCENC  =     -2457.16540853
  PAW double counting   =     56925.88998690   -53050.65702352
  entropy T*S    EENTRO =        -0.03288783
  eigenvalues    EBANDS =     -2115.73134711
  atomic energy  EATOM  =     41153.23212135
  Solvation  Ediel_sol  =         0.00000000
  ---------------------------------------------------
  free energy    TOTEN  =      -881.88449474 eV

  energy without entropy =     -881.85160691  energy(sigma->0) =     -881.86805082


--------------------------------------------------------------------------------------------------------




--------------------------------------- Iteration      1(  16)  ---------------------------------------


    POTLOK:  cpu time    0.0940: real time    0.0944
    SETDIJ:  cpu time    0.0103: real time    0.0103
    EDDIAG:  cpu time    3.5215: real time    3.5226
  RMM-DIIS:  cpu time    9.8491: real time    9.8528
    ORTHCH:  cpu time    0.8454: real time    0.8457
       DOS:  cpu time    0.0007: real time    0.0007
    CHARGE:  cpu time    0.8571: real time    0.8577
    MIXING:  cpu time    0.0043: real time    0.0043
    --------------------------------------------
      LOOP:  cpu time   15.1825: real time   15.1885

 eigenvalue-minimisations  :  4926
 total energy-change (2. order) : 0.1299194E+00  (-0.3101311E-01)
 number of electron     744.0000114 magnetization 
 augmentation part      234.0969463 magnetization 

 DIPCOR: dipole corrections for dipol
 direction  3 min pos   152,
 dipolmoment           0.000000      0.000000     -0.876401 electrons x Angstroem
 Tr[quadrupol]    -29873.020280

 energy correction for charged system         0.000000 eV
 dipol+quadrupol energy correction           -0.018339 eV
 added-field ion interaction        -34.427510 eV  (added to PSCEN)


 Broyden mixing:
  rms(total) = 0.21930E+00    rms(broyden)= 0.21930E+00
  rms(prec ) = 0.31957E+00
  weight for this iteration     100.00

 eigenvalues of (default mixing * dielectric matrix)
  average eigenvalue GAMMA=   0.6786
  1.9947  1.4836  1.1151  0.5844  0.0918  0.2591  0.2312  0.1561  0.1915

 Free energy of the ion-electron system (eV)
  ---------------------------------------------------
  alpha Z        PSCENC =       962.76398887
  Ewald energy   TEWEN  =    167495.93880432
  -Hartree energ DENC   =   -209807.05626450
  -exchange      EXHF   =         0.00000000
  -V(xc)+E(xc)   XCENC  =     -2456.94337735
  PAW double counting   =     57041.17603473   -53167.37032015
  entropy T*S    EENTRO =        -0.03101046
  eigenvalues    EBANDS =     -2103.46455217
  atomic energy  EATOM  =     41153.23212135
  Solvation  Ediel_sol  =         0.00000000
  ---------------------------------------------------
  free energy    TOTEN  =      -881.75457536 eV

  energy without entropy =     -881.72356490  energy(sigma->0) =     -881.73907013


--------------------------------------------------------------------------------------------------------




--------------------------------------- Iteration      1(  17)  ---------------------------------------


    POTLOK:  cpu time    0.0908: real time    0.0910
    SETDIJ:  cpu time    0.0103: real time    0.0103
    EDDIAG:  cpu time    3.5695: real time    3.5708
  RMM-DIIS:  cpu time    9.9696: real time    9.9734
    ORTHCH:  cpu time    0.8426: real time    0.8427
       DOS:  cpu time    0.0008: real time    0.0008
    CHARGE:  cpu time    0.8569: real time    0.8573
    MIXING:  cpu time    0.0045: real time    0.0045
    --------------------------------------------
      LOOP:  cpu time   15.3449: real time   15.3507

 eigenvalue-minimisations  :  4961
 total energy-change (2. order) : 0.4320319E-01  (-0.1131227E-01)
 number of electron     744.0000114 magnetization 
 augmentation part      234.1411562 magnetization 

 DIPCOR: dipole corrections for dipol
[...]
      LOOP:  cpu time   10.6512: real time   10.6557

 eigenvalue-minimisations  :  2494
 total energy-change (2. order) :-0.2403962E-05  (-0.1276708E-05)
 number of electron     744.0000111 magnetization 
 augmentation part      234.1717652 magnetization 

 DIPCOR: dipole corrections for dipol
 direction  3 min pos   149,
 dipolmoment           0.000000      0.000000     -0.944012 electrons x Angstroem
 Tr[quadrupol]    -29881.808628

 energy correction for charged system         0.000000 eV
 dipol+quadrupol energy correction           -0.021277 eV
 added-field ion interaction        -27.437317 eV  (added to PSCEN)


 eigenvalues of (default mixing * dielectric matrix)
  average eigenvalue GAMMA=   0.6435
  1.0945  0.1925

  free energy =  -0.881672234066E+03  energy without entropy=  -0.881641238130E+03


--------------------------------------------------------------------------------------------------------




--------------------------------------- Iteration     23(   4)  ---------------------------------------


    POTLOK:  cpu time    0.0937: real time    0.0949
    SETDIJ:  cpu time    0.0103: real time    0.0103
    EDDIAG:  cpu time    3.4774: real time    3.4786
  RMM-DIIS:  cpu time    5.2070: real time    5.2108
    ORTHCH:  cpu time    0.8386: real time    0.8389
       DOS:  cpu time    0.0008: real time    0.0008
    CHARGE:  cpu time    0.8623: real time    0.8626
    MIXING:  cpu time    0.0033: real time    0.0033
    --------------------------------------------
      LOOP:  cpu time   10.4933: real time   10.5002

 eigenvalue-minimisations  :  2449
 total energy-change (2. order) :-0.1820365E-05  (-0.6424816E-06)
 number of electron     744.0000111 magnetization 
 augmentation part      234.1718136 magnetization 

 DIPCOR: dipole corrections for dipol
 direction  3 min pos   149,
 dipolmoment           0.000000      0.000000     -0.942827 electrons x Angstroem
 Tr[quadrupol]    -29881.811735

 energy correction for charged system         0.000000 eV
 dipol+quadrupol energy correction           -0.021224 eV
 added-field ion interaction        -27.402874 eV  (added to PSCEN)


 eigenvalues of (default mixing * dielectric matrix)
  average eigenvalue GAMMA=   0.5562
  1.2984  0.2563  0.1139

  free energy =  -0.881672235886E+03  energy without entropy=  -0.881641260685E+03


--------------------------------------------------------------------------------------------------------




--------------------------------------- Iteration     23(   5)  ---------------------------------------


    POTLOK:  cpu time    0.0943: real time    0.0949
    SETDIJ:  cpu time    0.0103: real time    0.0103
    EDDIAG:  cpu time    3.4747: real time    3.4761
  RMM-DIIS:  cpu time    5.1578: real time    5.1602
    ORTHCH:  cpu time    0.8366: real time    0.8369
       DOS:  cpu time    0.0007: real time    0.0007
    --------------------------------------------
      LOOP:  cpu time    9.5742: real time    9.5790

 eigenvalue-minimisations  :  2416
 total energy-change (2. order) : 0.5275579E-05  (-0.3624143E-06)
 number of electron     744.0000111 magnetization 
 augmentation part      234.1718136 magnetization 

 DIPCOR: dipole corrections for dipol
 direction  3 min pos   149,
 dipolmoment           0.000000      0.000000     -0.943925 electrons x Angstroem
 Tr[quadrupol]    -29881.809127

 energy correction for charged system         0.000000 eV
 dipol+quadrupol energy correction           -0.021273 eV
 added-field ion interaction        -27.434787 eV  (added to PSCEN)


  free energy =  -0.881672230611E+03  energy without entropy=  -0.881641247463E+03


--------------------------------------------------------------------------------------------------------




------------------------ aborting loop because EDIFF is reached ----------------------------------------


    CHARGE:  cpu time    0.8592: real time    0.8592
    FORLOC:  cpu time    0.0511: real time    0.0511
    FORNL :  cpu time    3.5428: real time    3.5443
    STRESS:  cpu time   10.4329: real time   10.5005
    FORCOR:  cpu time    0.1152: real time    0.1155
    FORHAR:  cpu time    0.0661: real time    0.0661
    MIXING:  cpu time    0.0034: real time    0.0034
    OFIELD:  cpu time    0.0001: real time    0.0001

  Number of pair interactions contributing to vdW energy:  428141
  Edisp (eV):   -7.97506
    FORVDW:  cpu time    0.0573: real time    0.0573

  FORCE on cell =-STRESS in cart. coord.  units (eV):
  Direction    XX          YY          ZZ          XY          YZ          ZX
  --------------------------------------------------------------------------------------
  Alpha Z   997.20984   997.20984   997.20984
  Ewald  196374.49102196613.24087************  -222.07630    51.12518   576.44128
  Hartree204559.30391204853.13551************  -259.28615    94.10665   495.74086
  E(xc)   -3435.42052 -3434.60069 -3440.20067    -0.15914    -0.23752     0.04513
  Local  ************************413923.96167   481.99822  -155.24538 -1073.31298
  n-local   767.52908   762.64691   563.40100     1.11002    -0.80052    -0.06594
  augment  3820.44308  3815.94390  3837.10356     0.85394     0.48971     0.05680
  Kinetic  8972.71466  8952.39228  9071.36080    -0.49501    10.22655     1.04816
  Fock        0.00000     0.00000     0.00000     0.00000     0.00000     0.00000
  vdW        -9.09870    -9.00706    -7.06179    -0.06800    -0.03552    -0.17522
  -------------------------------------------------------------------------------------
  Total    -104.94911  -105.76304  -119.32175     1.87757    -0.37085    -0.22190
  in kB     -43.96207   -44.30302   -49.98262     0.78649    -0.15534    -0.09295
  external pressure =      -46.08 kB  Pullay stress =        0.00 kB



--------------------------------------------------------------------------------------------------------



  FREE ENERGIE OF THE ION-ELECTRON SYSTEM (eV)
  ---------------------------------------------------
  free  energy   TOTEN  =      -889.64729330 eV

  energy  without entropy=     -889.61631015  energy(sigma->0) =     -889.63180172
 
 d Force = 0.1017607E-04[-0.126E-05, 0.216E-04]  d Energy = 0.6699033E-05 0.348E-05
 d Force = 0.1382821E+01[ 0.138E+01, 0.138E+01]  d Ewald  = 0.1382821E+01-0.144E-06


--------------------------------------------------------------------------------------------------------


    POTLOK:  cpu time    0.1056: real time    0.1085


--------------------------------------------------------------------------------------------------------




--------------------------------------------------------------------------------------------------------


    WAVPRE:  cpu time    0.0504: real time    0.0516
    FEWALD:  cpu time    0.0025: real time    0.0025
    ORTHCH:  cpu time    1.9840: real time    1.9850
     LOOP+:  cpu time   80.4262: real time   80.5309


--------------------------------------- Iteration     24(   1)  ---------------------------------------


    POTLOK:  cpu time    0.0957: real time    0.0960
    SETDIJ:  cpu time    0.0102: real time    0.0102
     EDDAV:  cpu time   18.4434: real time   18.4684
       DOS:  cpu time    0.0013: real time    0.0013
    CHARGE:  cpu time    0.8587: real time    0.8590
    MIXING:  cpu time    0.0026: real time    0.0026
    --------------------------------------------
      LOOP:  cpu time   19.4120: real time   19.4376

 eigenvalue-minimisations  :  4800
 total energy-change (2. order) :-0.1113205E-03  (-0.7220418E-03)
 number of electron     744.0000110 magnetization 
 augmentation part      234.1716995 magnetization 

 DIPCOR: dipole corrections for dipol
 direction  3 min pos   149,
 dipolmoment           0.000000      0.000000     -0.943566 electrons x Angstroem
 Tr[quadrupol]    -29881.870135

 energy correction for charged system         0.000000 eV
 dipol+quadrupol energy correction           -0.021257 eV
 added-field ion interaction        -27.424071 eV  (added to PSCEN)


  free energy =  -0.881672347207E+03  energy without entropy=  -0.881641366660E+03


--------------------------------------------------------------------------------------------------------




--------------------------------------- Iteration     24(   2)  ---------------------------------------


    POTLOK:  cpu time    0.0936: real time    0.0936
    SETDIJ:  cpu time    0.0103: real time    0.0103
    EDDIAG:  cpu time    3.4538: real time    3.5867
  RMM-DIIS:  cpu time    8.5775: real time    8.5931
    ORTHCH:  cpu time    0.8344: real time    0.8344
       DOS:  cpu time    0.0008: real time    0.0008
    CHARGE:  cpu time    0.8590: real time    0.8593
    MIXING:  cpu time    0.0030: real time    0.0030
    --------------------------------------------
      LOOP:  cpu time   13.8324: real time   13.9811

 eigenvalue-minimisations  :  4290
 total energy-change (2. order) :-0.3464324E-04  (-0.1726410E-04)
 number of electron     744.0000110 magnetization 
 augmentation part      234.1715536 magnetization 

 DIPCOR: dipole corrections for dipol
 direction  3 min pos   149,
 dipolmoment           0.000000      0.000000     -0.944317 electrons x Angstroem
 Tr[quadrupol]    -29881.868258

 energy correction for charged system         0.000000 eV
 dipol+quadrupol energy correction           -0.021291 eV
 added-field ion interaction        -27.445914 eV  (added to PSCEN)


 eigenvalues of (default mixing * dielectric matrix)
  average eigenvalue GAMMA=   0.2926
  0.2926

  free energy =  -0.881672381850E+03  energy without entropy=  -0.881641397188E+03


--------------------------------------------------------------------------------------------------------




--------------------------------------- Iteration     24(   3)  ---------------------------------------


    POTLOK:  cpu time    0.0925: real time    0.0931
    SETDIJ:  cpu time    0.0104: real time    0.0104
    EDDIAG:  cpu time    3.4655: real time    3.4749
  RMM-DIIS:  cpu time    6.0258: real time    6.0282
    ORTHCH:  cpu time    0.8383: real time    0.8386
       DOS:  cpu time    0.0008: real time    0.0007
    CHARGE:  cpu time    0.8511: real time    0.8603
    MIXING:  cpu time    0.0030: real time    0.0030
    --------------------------------------------
      LOOP:  cpu time   11.2872: real time   11.3093

 eigenvalue-minimisations  :  2865
 total energy-change (2. order) : 0.1825087E-04  (-0.1891936E-05)
 number of electron     744.0000110 magnetization 
 augmentation part      234.1718372 magnetization 

 DIPCOR: dipole corrections for dipol
 direction  3 min pos   149,
 dipolmoment           0.000000      0.000000     -0.942869 electrons x Angstroem
 Tr[quadrupol]    -29881.871687

 energy correction for charged system         0.000000 eV
 dipol+quadrupol energy correction           -0.021226 eV
 added-field ion interaction        -27.403836 eV  (added to PSCEN)


 eigenvalues of (default mixing * dielectric matrix)
  average eigenvalue GAMMA=   0.4431
  0.7571  0.1292

  free energy =  -0.881672363599E+03  energy without entropy=  -0.881641387450E+03


--------------------------------------------------------------------------------------------------------




--------------------------------------- Iteration     24(   4)  ---------------------------------------


    POTLOK:  cpu time    0.0927: real time    0.0935
    SETDIJ:  cpu time    0.0103: real time    0.0103
    EDDIAG:  cpu time    3.4612: real time    3.4624
  RMM-DIIS:  cpu time    5.4298: real time    5.8203
    ORTHCH:  cpu time    0.8317: real time    0.8376
       DOS:  cpu time    0.0007: real time    0.0007
    CHARGE:  cpu time    0.8626: real time    0.8630
    MIXING:  cpu time    0.0032: real time    0.0032
    --------------------------------------------
      LOOP:  cpu time   10.6923: real time   11.0909

 eigenvalue-minimisations  :  2818
 total energy-change (2. order) :-0.7162940E-05  (-0.1326901E-05)
 number of electron     744.0000110 magnetization 
 augmentation part      234.1716765 magnetization 

 DIPCOR: dipole corrections for dipol
 direction  3 min pos   149,
 dipolmoment           0.000000      0.000000     -0.944637 electrons x Angstroem
 Tr[quadrupol]    -29881.867171

 energy correction for charged system         0.000000 eV
 dipol+quadrupol energy correction           -0.021306 eV
 added-field ion interaction        -27.455216 eV  (added to PSCEN)


 eigenvalues of (default mixing * dielectric matrix)
  average eigenvalue GAMMA=   0.5447
  1.3529  0.1847  0.0964

  free energy =  -0.881672370762E+03  energy without entropy=  -0.881641376061E+03


--------------------------------------------------------------------------------------------------------




--------------------------------------- Iteration     24(   5)  ---------------------------------------


    POTLOK:  cpu time    0.0928: real time    0.0936
    SETDIJ:  cpu time    0.0103: real time    0.0103
    EDDIAG:  cpu time    3.4772: real time    3.4782
  RMM-DIIS:  cpu time    5.1259: real time    5.1279
    ORTHCH:  cpu time    0.8425: real time    0.8431
       DOS:  cpu time    0.0007: real time    0.0007
    CHARGE:  cpu time    0.8665: real time    0.8669
    MIXING:  cpu time    0.0035: real time    0.0035
    --------------------------------------------
      LOOP:  cpu time   10.4194: real time   10.4242

 eigenvalue-minimisations  :  2431
 total energy-change (2. order) : 0.1035510E-04  (-0.9335875E-06)
 number of electron     744.0000110 magnetization 
 augmentation part      234.1716799 magnetization 

 DIPCOR: dipole corrections for dipol
 direction  3 min pos   149,
 dipolmoment           0.000000      0.000000     -0.943395 electrons x Angstroem
 Tr[quadrupol]    -29881.869971

 energy correction for charged system         0.000000 eV
 dipol+quadrupol energy correction           -0.021250 eV
 added-field ion interaction        -27.419120 eV  (added to PSCEN)


 eigenvalues of (default mixing * dielectric matrix)
  average eigenvalue GAMMA=   0.5894
  1.7346  0.3661  0.1656  0.0915

  free energy =  -0.881672360407E+03  energy without entropy=  -0.881641389860E+03


--------------------------------------------------------------------------------------------------------




--------------------------------------- Iteration     24(   6)  ---------------------------------------


    POTLOK:  cpu time    0.0938: real time    0.0940
    SETDIJ:  cpu time    0.0102: real time    0.0103
    EDDIAG:  cpu time    3.4735: real time    3.4751
  RMM-DIIS:  cpu time    5.1714: real time    5.1735
    ORTHCH:  cpu time    0.8362: real time    0.8365
       DOS:  cpu time    0.0007: real time    0.0007
    --------------------------------------------
      LOOP:  cpu time    9.5858: real time    9.5900

 eigenvalue-minimisations  :  2409
 total energy-change (2. order) : 0.2318244E-05  (-0.6991615E-06)
 number of electron     744.0000110 magnetization 
 augmentation part      234.1716799 magnetization 

 DIPCOR: dipole corrections for dipol
 direction  3 min pos   149,
 dipolmoment           0.000000      0.000000     -0.943631 electrons x Angstroem
 Tr[quadrupol]    -29881.869541

 energy correction for charged system         0.000000 eV
 dipol+quadrupol energy correction           -0.021260 eV
 added-field ion interaction        -27.425984 eV  (added to PSCEN)


  free energy =  -0.881672358089E+03  energy without entropy=  -0.881641372479E+03


--------------------------------------------------------------------------------------------------------




------------------------ aborting loop because EDIFF is reached ----------------------------------------


    CHARGE:  cpu time    0.8605: real time    0.8609
    FORLOC:  cpu time    0.0517: real time    0.0517
    FORNL :  cpu time    3.5382: real time    3.5392
    STRESS:  cpu time   10.3777: real time   10.4376
    FORCOR:  cpu time    0.1155: real time    0.1155
    FORHAR:  cpu time    0.0662: real time    0.0662
    MIXING:  cpu time    0.0035: real time    0.0035
    OFIELD:  cpu time    0.0001: real time    0.0001

  Number of pair interactions contributing to vdW energy:  428140
  Edisp (eV):   -7.97499
    FORVDW:  cpu time    0.0573: real time    0.0573

  FORCE on cell =-STRESS in cart. coord.  units (eV):
  Direction    XX          YY          ZZ          XY          YZ          ZX
  --------------------------------------------------------------------------------------
  Alpha Z   997.20984   997.20984   997.20984
  Ewald  196373.50079196611.95008************  -222.10253    50.92315   576.23413
  Hartree204557.42313204851.26713************  -259.40937    93.93076   495.39593
  E(xc)   -3435.41911 -3434.60052 -3440.20103    -0.15891    -0.23802     0.04518
  Local  ************************413921.18134   482.14940  -154.88291 -1072.75918
  n-local   767.52050   762.64059   563.39889     1.10836    -0.79784    -0.06665
  augment  3820.44190  3815.94561  3837.10598     0.85308     0.48991     0.05788
  Kinetic  8972.69145  8952.40087  9071.37793    -0.49949    10.23146     1.04654
  Fock        0.00000     0.00000     0.00000     0.00000     0.00000     0.00000
  vdW        -9.09869    -9.00684    -7.06132    -0.06803    -0.03554    -0.17539
  -------------------------------------------------------------------------------------
  Total    -104.92954  -105.75626  -119.34996     1.87252    -0.37903    -0.22156
  in kB     -43.95388   -44.30018   -49.99444     0.78438    -0.15877    -0.09281
  external pressure =      -46.08 kB  Pullay stress =        0.00 kB



--------------------------------------------------------------------------------------------------------



  FREE ENERGIE OF THE ION-ELECTRON SYSTEM (eV)
  ---------------------------------------------------
  free  energy   TOTEN  =      -889.64734984 eV

  energy  without entropy=     -889.61636423  energy(sigma->0) =     -889.63185704
 
 d Force = 0.5823524E-04[ 0.363E-04, 0.802E-04]  d Energy = 0.5654197E-04 0.169E-05
 d Force = 0.1440804E+01[ 0.144E+01, 0.144E+01]  d Ewald  = 0.1440803E+01 0.261E-06


--------------------------------------------------------------------------------------------------------


    POTLOK:  cpu time    0.1049: real time    0.1049


--------------------------------------------------------------------------------------------------------


 Conjugate gradient step on ions:
 trial-energy change:   -0.000057  1 .order   -0.000058   -0.000080   -0.000036
  (g-gl).g = 0.542E-04      g.g   = 0.570E-04  gl.gl    = 0.131E-03
 g(Force)  = 0.570E-04   g(Stress)= 0.000E+00 ortho     =-0.225E-05
 gamma     =   0.41352
 trial     =   1.43161
 opt step  =   2.61342  (harmonic =   2.61342) maximal distance =0.00131418
 next E    =  -889.647367   (d E  =  -0.00007)


--------------------------------------------------------------------------------------------------------


  
 reached required accuracy - stopping structural energy minimisation
     LOOP+:  cpu time   90.4515: real time   91.1193
    4ORBIT:  cpu time    0.0000: real time    0.0000

 total amount of memory used by VASP MPI-rank0   177293. kBytes
=======================================================================

   base      :      30000. kBytes
   nonlr-proj:      36877. kBytes
   fftplans  :       6642. kBytes
   grid      :      34272. kBytes
   one-center:       1726. kBytes
   wavefun   :      67776. kBytes
 
  
  
 General timing and accounting informations for this job:
 ========================================================
  
                  Total CPU time used (sec):     3124.526
                            User time (sec):     3098.436
                          System time (sec):       26.090
                         Elapsed time (sec):     3129.340
  
                   Maximum memory used (kb):      494940.
                   Average memory used (kb):           0.
  
                          Minor page faults:      2839229
                          Major page faults:            0
                 Voluntary context switches:         4909
