 vasp.5.3.3 18Dez12 (build Jan 17 2013 15:17:09) complex                        
  
 executed on             LinuxIFC date 2014.10.20  15:36:18
 running on   12 total cores
 distrk:  each k-point on   12 cores,    1 groups
 distr:  one band on NCORES_PER_BAND=   1 cores,   12 groups


--------------------------------------------------------------------------------------------------------


 INCAR:
 POTCAR:    PAW_PBE Pt 04Feb2005                  

 ----------------------------------------------------------------------------- 
|                                                                             |
|           W    W    AA    RRRRR   N    N  II  N    N   GGGG   !!!           |
|           W    W   A  A   R    R  NN   N  II  NN   N  G    G  !!!           |
|           W    W  A    A  R    R  N N  N  II  N N  N  G       !!!           |
|           W WW W  AAAAAA  RRRRR   N  N N  II  N  N N  G  GGG   !            |
|           WW  WW  A    A  R   R   N   NN  II  N   NN  G    G                |
|           W    W  A    A  R    R  N    N  II  N    N   GGGG   !!!           |
|                                                                             |
|      For optimal performance we recommend that you set                      |
|        NPAR = 4 - approx SQRT( number of cores)                             |
|      (number of cores/NPAR must be integer)                                 |
|      This setting will greatly improve the performance of VASP for DFT.     |
|      The default NPAR=number of cores might be grossly inefficient          |
|      on modern multi-core architectures or massively parallel machines.     |
|      Do your own testing.                                                   |
|      Unfortunately you need to use the default for hybrid, GW and RPA       |
|      calculations.                                                          |
|                                                                             |
 ----------------------------------------------------------------------------- 

 POTCAR:    PAW_PBE Pt 04Feb2005                  
  local pseudopotential read in
  partial core-charges read in
  partial kinetic energy density read in
  atomic valenz-charges read in
  non local Contribution for L=           2  read in
    real space projection operators read in
  non local Contribution for L=           2  read in
    real space projection operators read in
  non local Contribution for L=           0  read in
    real space projection operators read in
  non local Contribution for L=           0  read in
    real space projection operators read in
  non local Contribution for L=           1  read in
    real space projection operators read in
  non local Contribution for L=           1  read in
    real space projection operators read in
    PAW grid and wavefunctions read in
 
   number of l-projection  operators is LMAX  =           6
   number of lm-projection operators is LMMAX =          18
 
 Optimization of the real space projectors (new method)

 maximal supplied QI-value         = 14.36
 optimisation between [QCUT,QGAM] = [ 10.77, 21.69] = [ 32.49,131.70] Ry 
 Optimized for a Real-space Cutoff    1.46 Angstroem

   l    n(q)    QCUT    max X(q) W(low)/X(q) W(high)/X(q)  e(spline) 
   2      9    10.771    66.195    0.13E-03    0.31E-03    0.27E-06
   2      9    10.771    64.643    0.13E-03    0.32E-03    0.28E-06
   0     10    10.771    95.520    0.41E-04    0.13E-03    0.15E-06
   0     10    10.771    63.403    0.40E-04    0.12E-03    0.14E-06
   1      9    10.771    19.961    0.42E-03    0.19E-03    0.28E-06
   1      9    10.771    13.289    0.35E-03    0.16E-03    0.23E-06
  PAW_PBE Pt 04Feb2005                  :
 energy of atom  1       EATOM= -729.1176
 kinetic energy error for atom=    0.0051 (will be added to EATOM!!)
 
 
 POSCAR: Pt                                      
  positions in direct lattice
  velocities in cartesian coordinates
 exchange correlation table for  LEXCH =        8
   RHO(1)=    0.500       N(1)  =     2000
   RHO(2)=  100.500       N(2)  =     4000
 


--------------------------------------------------------------------------------------------------------


 ion  position               nearest neighbor table
   1  0.000  0.000  0.000-   2 2.81  12 2.81   9 2.81   5 2.81   6 2.81   8 2.81  13 2.81  18 2.81
                            20 2.81
   2  0.167  0.167  0.000-   1 2.81   6 2.81   9 2.81   4 2.81   7 2.81  13 2.81  14 2.81  15 2.81
                             3 2.81
   3  0.333  0.333  0.000-  10 2.81   8 2.81   5 2.81   7 2.81   4 2.81  17 2.81  19 2.81  15 2.81
                             2 2.81
   4  0.500  0.000  0.000-   5 2.81   9 2.81   2 2.81  12 2.81  11 2.81   3 2.81  15 2.81  16 2.81
                            23 2.81
   5  0.667  0.167  0.000-   4 2.81   3 2.81  12 2.81   1 2.81  10 2.81  16 2.81  17 2.81  18 2.81
                             6 2.81
   6  0.833  0.333  0.000-   7 2.81   2 2.81  11 2.81  10 2.81   1 2.81  14 2.81  22 2.81  18 2.81
                             5 2.81
   7  0.000  0.500  0.000-   6 2.81   8 2.81   3 2.81  11 2.81   2 2.81  12 2.81  14 2.81  19 2.81
                            24 2.81
   8  0.167  0.667  0.000-   7 2.81   3 2.81  12 2.81  10 2.81   1 2.81  19 2.81  20 2.81  21 2.81
                             9 2.81
   9  0.333  0.833  0.000-   4 2.81   2 2.81  11 2.81   1 2.81  10 2.81  23 2.81  13 2.81  21 2.81
                             8 2.81
  10  0.500  0.500  0.000-   3 2.81  11 2.81   8 2.81   6 2.81   9 2.81   5 2.81  17 2.81  21 2.81
                            22 2.81
  11  0.667  0.667  0.000-  10 2.81   9 2.81   6 2.81   7 2.81   4 2.81  22 2.81  23 2.81  24 2.81
                            12 2.81
  12  0.833  0.833  0.000-   1 2.81   5 2.81   8 2.81   4 2.81   7 2.81  20 2.81  16 2.81  24 2.81
                            11 2.81
  13  0.167  0.000  0.115-  25 2.79  33 2.79  26 2.79  20 2.81  18 2.81  23 2.81  15 2.81  14 2.81
                            21 2.81   2 2.81   1 2.81   9 2.81
  14  0.000  0.333  0.115-  27 2.79  35 2.79  25 2.79  19 2.81  24 2.81  18 2.81  22 2.81  15 2.81
                            13 2.81   7 2.81   6 2.81   2 2.81
  15  0.333  0.167  0.115-  26 2.79  28 2.79  27 2.79  16 2.81  23 2.81  13 2.81  17 2.81  14 2.81
                            19 2.81   4 2.81   2 2.81   3 2.81
  16  0.667  0.000  0.115-  28 2.79  36 2.79  29 2.79  23 2.81  15 2.81  18 2.81  20 2.81  24 2.81
                            17 2.81   5 2.81   4 2.81  12 2.81
  17  0.500  0.333  0.115-  30 2.79  32 2.79  28 2.79  22 2.81  21 2.81  19 2.81  15 2.81  16 2.81
                            18 2.81  10 2.81   3 2.81   5 2.81
  18  0.833  0.167  0.115-  25 2.79  29 2.79  30 2.79  13 2.81  20 2.81  14 2.81  16 2.81  22 2.81
                            17 2.81   1 2.81   6 2.81   5 2.81
  19  0.167  0.500  0.115-  27 2.79  31 2.79  32 2.79  24 2.81  14 2.81  17 2.81  21 2.81  20 2.81
                            15 2.81   8 2.81   7 2.81   3 2.81
  20  0.000  0.833  0.115-  29 2.79  33 2.79  31 2.79  13 2.81  18 2.81  24 2.81  16 2.81  19 2.81
                            21 2.81  12 2.81   1 2.81   8 2.81
  21  0.333  0.667  0.115-  32 2.79  34 2.79  33 2.79  22 2.81  17 2.81  23 2.81  19 2.81  20 2.81
                            13 2.81  10 2.81   8 2.81   9 2.81
  22  0.667  0.500  0.115-  30 2.79  34 2.79  35 2.79  21 2.81  17 2.81  24 2.81  14 2.81  18 2.81
                            23 2.81  11 2.81  10 2.81   6 2.81
  23  0.500  0.833  0.115-  26 2.79  36 2.79  34 2.79  16 2.81  15 2.81  21 2.81  13 2.81  24 2.81
                            22 2.81   9 2.81   4 2.81  11 2.81
  24  0.833  0.667  0.115-  31 2.79  35 2.79  36 2.79  19 2.81  14 2.81  22 2.81  20 2.81  23 2.81
                            16 2.81   7 2.81  12 2.81  11 2.81
  25  0.000  0.167  0.228-  13 2.79  18 2.79  14 2.79  29 2.81  33 2.81  26 2.81  27 2.81  30 2.81
                            35 2.81  37 2.82  38 2.82  42 2.82
  26  0.333  0.000  0.228-  15 2.79  23 2.79  13 2.79  28 2.81  36 2.81  33 2.81  25 2.81  34 2.81
                            27 2.81  40 2.82  45 2.82  38 2.82
  27  0.167  0.333  0.228-  14 2.79  19 2.79  15 2.79  35 2.81  31 2.81  32 2.81  25 2.81  28 2.81
                            26 2.81  43 2.82  39 2.82  38 2.82
  28  0.500  0.167  0.228-  15 2.79  16 2.79  17 2.79  26 2.81  36 2.81  30 2.81  29 2.81  32 2.81
                            27 2.81  40 2.82  41 2.82  39 2.82
  29  0.833  0.000  0.228-  18 2.79  20 2.79  16 2.79  25 2.81  33 2.81  28 2.81  36 2.81  30 2.81
                            31 2.81  37 2.82  48 2.82  41 2.82
  30  0.667  0.333  0.228-  17 2.79  22 2.79  18 2.79  32 2.81  34 2.81  28 2.81  35 2.81  29 2.81
                            25 2.81  46 2.82  42 2.82  41 2.82
  31  0.000  0.667  0.228-  19 2.79  24 2.79  20 2.79  35 2.81  27 2.81  33 2.81  32 2.81  29 2.81
                            36 2.81  43 2.82  44 2.82  48 2.82
  32  0.333  0.500  0.228-  17 2.79  21 2.79  19 2.79  30 2.81  34 2.81  31 2.81  27 2.81  33 2.81
                            28 2.81  39 2.82  46 2.82  44 2.82
  33  0.167  0.833  0.228-  13 2.79  20 2.79  21 2.79  29 2.81  25 2.81  26 2.81  31 2.81  32 2.81
                            34 2.81  37 2.82  44 2.82  45 2.82
  34  0.500  0.667  0.228-  21 2.79  22 2.79  23 2.79  32 2.81  30 2.81  35 2.81  36 2.81  26 2.81
                            33 2.81  46 2.82  47 2.82  45 2.82
  35  0.833  0.500  0.228-  14 2.79  24 2.79  22 2.79  27 2.81  31 2.81  30 2.81  34 2.81  25 2.81
                            36 2.81  42 2.82  43 2.82  47 2.82
  36  0.667  0.833  0.228-  16 2.79  23 2.79  24 2.79  26 2.81  28 2.81  29 2.81  34 2.81  31 2.81
                            35 2.81  40 2.82  47 2.82  48 2.82
  37  0.000  0.000  0.343-  38 2.81  48 2.81  45 2.81  41 2.81  42 2.81  44 2.81  25 2.82  29 2.82
                            33 2.82
  38  0.167  0.167  0.343-  37 2.81  42 2.81  45 2.81  40 2.81  43 2.81  39 2.81  25 2.82  26 2.82
                            27 2.82
  39  0.333  0.333  0.343-  46 2.81  44 2.81  41 2.81  43 2.81  40 2.81  38 2.81  32 2.82  28 2.82
                            27 2.82
  40  0.500  0.000  0.343-  41 2.81  45 2.81  38 2.81  48 2.81  47 2.81  39 2.81  26 2.82  28 2.82
                            36 2.82
  41  0.667  0.167  0.343-  40 2.81  39 2.81  48 2.81  37 2.81  46 2.81  42 2.81  28 2.82  29 2.82
                            30 2.82
  42  0.833  0.333  0.343-  43 2.81  38 2.81  47 2.81  46 2.81  37 2.81  41 2.81  35 2.82  25 2.82
                            30 2.82
  43  0.000  0.500  0.343-  42 2.81  44 2.81  39 2.81  47 2.81  38 2.81  48 2.81  27 2.82  31 2.82
                            35 2.82
  44  0.167  0.667  0.343-  43 2.81  39 2.81  48 2.81  46 2.81  37 2.81  45 2.81  31 2.82  32 2.82
                            33 2.82
  45  0.333  0.833  0.343-  40 2.81  38 2.81  47 2.81  37 2.81  46 2.81  44 2.81  26 2.82  34 2.82
                            33 2.82
  46  0.500  0.500  0.343-  39 2.81  47 2.81  44 2.81  42 2.81  45 2.81  41 2.81  30 2.82  32 2.82
                            34 2.82
  47  0.667  0.667  0.343-  46 2.81  45 2.81  42 2.81  43 2.81  40 2.81  48 2.81  34 2.82  35 2.82
                            36 2.82
  48  0.833  0.833  0.343-  37 2.81  41 2.81  44 2.81  40 2.81  43 2.81  47 2.81  29 2.82  31 2.82
                            36 2.82
 
  LATTYP: Found a hexagonal cell.
 ALAT       =     9.7196719493
 C/A-ratio  =     2.0576826157
  
  Lattice vectors:
  
 A1 = (   4.8598359747,  -8.4174828245,   0.0000000000)
 A2 = (  -9.7196719493,   0.0000000000,   0.0000000000)
 A3 = (   0.0000000000,   0.0000000000, -20.0000000000)


Analysis of symmetry for initial positions (statically):
=====================================================================
 Subroutine PRICEL returns following result:
 
  LATTYP: Found a hexagonal cell.
 ALAT       =     2.8058276082
 C/A-ratio  =     7.1280216723
  
  Lattice vectors:
  
 A1 = (  -2.4299179873,  -1.4029138041,   0.0000000000)
 A2 = (   0.0000000000,   2.8058276082,   0.0000000000)
 A3 = (   0.0000000000,   0.0000000000, -20.0000000000)
 
  12 primitive cells build up your supercell.
 

 Routine SETGRP: Setting up the symmetry group for a 
 hexagonal supercell.


 Subroutine GETGRP returns: Found  6 space group operations
 (whereof  6 operations were pure point group operations)
 out of a pool of 24 trial point group operations.


The static configuration has the point symmetry C_3v.


Analysis of symmetry for dynamics (positions and initial velocities):
=====================================================================
 Subroutine PRICEL returns following result:
 
  LATTYP: Found a hexagonal cell.
 ALAT       =     2.8058276082
 C/A-ratio  =     7.1280216723
  
  Lattice vectors:
  
 A1 = (  -2.4299179873,  -1.4029138041,   0.0000000000)
 A2 = (   0.0000000000,   2.8058276082,   0.0000000000)
 A3 = (   0.0000000000,   0.0000000000, -20.0000000000)
 
  12 primitive cells build up your supercell.
 

 Routine SETGRP: Setting up the symmetry group for a 
 hexagonal supercell.


 Subroutine GETGRP returns: Found  6 space group operations
 (whereof  6 operations were pure point group operations)
 out of a pool of 24 trial point group operations.


The dynamic configuration has the point symmetry C_3v.


Analysis of constrained symmetry for selective dynamics:
=====================================================================
 Subroutine PRICEL returns following result:
 
  LATTYP: Found a hexagonal cell.
 ALAT       =     2.8058276082
 C/A-ratio  =     7.1280216723
  
  Lattice vectors:
  
 A1 = (  -2.4299179873,  -1.4029138041,   0.0000000000)
 A2 = (   0.0000000000,   2.8058276082,   0.0000000000)
 A3 = (   0.0000000000,   0.0000000000, -20.0000000000)
 
  12 primitive cells build up your supercell.
 

 Routine SETGRP: Setting up the symmetry group for a 
 hexagonal supercell.


 Subroutine GETGRP returns: Found  6 space group operations
 (whereof  6 operations were pure point group operations)
 out of a pool of 24 trial point group operations.


The constrained configuration has the point symmetry C_3v.


 irot  :   1
 --------------------------------------------------------------------
 isymop:   1   0   0
           0   1   0
           0   0   1

 gtrans:     0.0000000     0.0000000     0.0000000

 ptrans:     0.0000000     0.0000000     0.0000000
 rotmap:
 (   1->   1)  (   2->   2)  (   3->   3)  (   4->   4)  (   5->   5) 
 (   6->   6)  (   7->   7)  (   8->   8)  (   9->   9)  (  10->  10) 
 (  11->  11)  (  12->  12)  (  13->  13)  (  14->  14)  (  15->  15) 
 (  16->  16)  (  17->  17)  (  18->  18)  (  19->  19)  (  20->  20) 
 (  21->  21)  (  22->  22)  (  23->  23)  (  24->  24)  (  25->  25) 
 (  26->  26)  (  27->  27)  (  28->  28)  (  29->  29)  (  30->  30) 
 (  31->  31)  (  32->  32)  (  33->  33)  (  34->  34)  (  35->  35) 
 (  36->  36)  (  37->  37)  (  38->  38)  (  39->  39)  (  40->  40) 
 (  41->  41)  (  42->  42)  (  43->  43)  (  44->  44)  (  45->  45) 
 (  46->  46)  (  47->  47)  (  48->  48) 

 ptrans:     0.8333333     0.8333333     0.0000000
 rotmap:
 (   1->  12)  (   2->   1)  (   3->   2)  (   4->   9)  (   5->   4) 
 (   6->   5)  (   7->   6)  (   8->   7)  (   9->   8)  (  10->   3) 
 (  11->  10)  (  12->  11)  (  13->  20)  (  14->  18)  (  15->  13) 
 (  16->  23)  (  17->  15)  (  18->  16)  (  19->  14)  (  20->  24) 
 (  21->  19)  (  22->  17)  (  23->  21)  (  24->  22)  (  25->  29) 
 (  26->  33)  (  27->  25)  (  28->  26)  (  29->  36)  (  30->  28) 
 (  31->  35)  (  32->  27)  (  33->  31)  (  34->  32)  (  35->  30) 
 (  36->  34)  (  37->  48)  (  38->  37)  (  39->  38)  (  40->  45) 
 (  41->  40)  (  42->  41)  (  43->  42)  (  44->  43)  (  45->  44) 
 (  46->  39)  (  47->  46)  (  48->  47) 

 ptrans:     0.6666667     0.6666667     0.0000000
 rotmap:
 (   1->  11)  (   2->  12)  (   3->   1)  (   4->   8)  (   5->   9) 
 (   6->   4)  (   7->   5)  (   8->   6)  (   9->   7)  (  10->   2) 
 (  11->   3)  (  12->  10)  (  13->  24)  (  14->  16)  (  15->  20) 
 (  16->  21)  (  17->  13)  (  18->  23)  (  19->  18)  (  20->  22) 
 (  21->  14)  (  22->  15)  (  23->  19)  (  24->  17)  (  25->  36) 
 (  26->  31)  (  27->  29)  (  28->  33)  (  29->  34)  (  30->  26) 
 (  31->  30)  (  32->  25)  (  33->  35)  (  34->  27)  (  35->  28) 
 (  36->  32)  (  37->  47)  (  38->  48)  (  39->  37)  (  40->  44) 
 (  41->  45)  (  42->  40)  (  43->  41)  (  44->  42)  (  45->  43) 
 (  46->  38)  (  47->  39)  (  48->  46) 

 ptrans:     0.5000000     0.5000000     0.0000000
 rotmap:
 (   1->  10)  (   2->  11)  (   3->  12)  (   4->   7)  (   5->   8) 
 (   6->   9)  (   7->   4)  (   8->   5)  (   9->   6)  (  10->   1) 
 (  11->   2)  (  12->   3)  (  13->  22)  (  14->  23)  (  15->  24) 
 (  16->  19)  (  17->  20)  (  18->  21)  (  19->  16)  (  20->  17) 
 (  21->  18)  (  22->  13)  (  23->  14)  (  24->  15)  (  25->  34) 
 (  26->  35)  (  27->  36)  (  28->  31)  (  29->  32)  (  30->  33) 
 (  31->  28)  (  32->  29)  (  33->  30)  (  34->  25)  (  35->  26) 
 (  36->  27)  (  37->  46)  (  38->  47)  (  39->  48)  (  40->  43) 
 (  41->  44)  (  42->  45)  (  43->  40)  (  44->  41)  (  45->  42) 
 (  46->  37)  (  47->  38)  (  48->  39) 

 ptrans:     0.3333333     0.3333333     0.0000000
 rotmap:
 (   1->   3)  (   2->  10)  (   3->  11)  (   4->   6)  (   5->   7) 
 (   6->   8)  (   7->   9)  (   8->   4)  (   9->   5)  (  10->  12) 
 (  11->   1)  (  12->   2)  (  13->  17)  (  14->  21)  (  15->  22) 
 (  16->  14)  (  17->  24)  (  18->  19)  (  19->  23)  (  20->  15) 
 (  21->  16)  (  22->  20)  (  23->  18)  (  24->  13)  (  25->  32) 
 (  26->  30)  (  27->  34)  (  28->  35)  (  29->  27)  (  30->  31) 
 (  31->  26)  (  32->  36)  (  33->  28)  (  34->  29)  (  35->  33) 
 (  36->  25)  (  37->  39)  (  38->  46)  (  39->  47)  (  40->  42) 
 (  41->  43)  (  42->  44)  (  43->  45)  (  44->  40)  (  45->  41) 
 (  46->  48)  (  47->  37)  (  48->  38) 

 ptrans:     0.1666667     0.1666667     0.0000000
 rotmap:
 (   1->   2)  (   2->   3)  (   3->  10)  (   4->   5)  (   5->   6) 
 (   6->   7)  (   7->   8)  (   8->   9)  (   9->   4)  (  10->  11) 
 (  11->  12)  (  12->   1)  (  13->  15)  (  14->  19)  (  15->  17) 
 (  16->  18)  (  17->  22)  (  18->  14)  (  19->  21)  (  20->  13) 
 (  21->  23)  (  22->  24)  (  23->  16)  (  24->  20)  (  25->  27) 
 (  26->  28)  (  27->  32)  (  28->  30)  (  29->  25)  (  30->  35) 
 (  31->  33)  (  32->  34)  (  33->  26)  (  34->  36)  (  35->  31) 
 (  36->  29)  (  37->  38)  (  38->  39)  (  39->  46)  (  40->  41) 
 (  41->  42)  (  42->  43)  (  43->  44)  (  44->  45)  (  45->  40) 
 (  46->  47)  (  47->  48)  (  48->  37) 

 ptrans:     0.8333333     0.3333333     0.0000000
 rotmap:
 (   1->   6)  (   2->   7)  (   3->   8)  (   4->   3)  (   5->  10) 
 (   6->  11)  (   7->  12)  (   8->   1)  (   9->   2)  (  10->   9) 
 (  11->   4)  (  12->   5)  (  13->  14)  (  14->  24)  (  15->  19) 
 (  16->  17)  (  17->  21)  (  18->  22)  (  19->  20)  (  20->  18) 
 (  21->  13)  (  22->  23)  (  23->  15)  (  24->  16)  (  25->  35) 
 (  26->  27)  (  27->  31)  (  28->  32)  (  29->  30)  (  30->  34) 
 (  31->  29)  (  32->  33)  (  33->  25)  (  34->  26)  (  35->  36) 
 (  36->  28)  (  37->  42)  (  38->  43)  (  39->  44)  (  40->  39) 
 (  41->  46)  (  42->  47)  (  43->  48)  (  44->  37)  (  45->  38) 
 (  46->  45)  (  47->  40)  (  48->  41) 

 ptrans:     0.6666667     0.1666667     0.0000000
 rotmap:
 (   1->   5)  (   2->   6)  (   3->   7)  (   4->   2)  (   5->   3) 
 (   6->  10)  (   7->  11)  (   8->  12)  (   9->   1)  (  10->   8) 
 (  11->   9)  (  12->   4)  (  13->  18)  (  14->  22)  (  15->  14) 
 (  16->  15)  (  17->  19)  (  18->  17)  (  19->  24)  (  20->  16) 
 (  21->  20)  (  22->  21)  (  23->  13)  (  24->  23)  (  25->  30) 
 (  26->  25)  (  27->  35)  (  28->  27)  (  29->  28)  (  30->  32) 
 (  31->  36)  (  32->  31)  (  33->  29)  (  34->  33)  (  35->  34) 
 (  36->  26)  (  37->  41)  (  38->  42)  (  39->  43)  (  40->  38) 
 (  41->  39)  (  42->  46)  (  43->  47)  (  44->  48)  (  45->  37) 
 (  46->  44)  (  47->  45)  (  48->  40) 

 ptrans:     0.5000000     0.0000000     0.0000000
 rotmap:
 (   1->   4)  (   2->   5)  (   3->   6)  (   4->   1)  (   5->   2) 
 (   6->   3)  (   7->  10)  (   8->  11)  (   9->  12)  (  10->   7) 
 (  11->   8)  (  12->   9)  (  13->  16)  (  14->  17)  (  15->  18) 
 (  16->  13)  (  17->  14)  (  18->  15)  (  19->  22)  (  20->  23) 
 (  21->  24)  (  22->  19)  (  23->  20)  (  24->  21)  (  25->  28) 
 (  26->  29)  (  27->  30)  (  28->  25)  (  29->  26)  (  30->  27) 
 (  31->  34)  (  32->  35)  (  33->  36)  (  34->  31)  (  35->  32) 
 (  36->  33)  (  37->  40)  (  38->  41)  (  39->  42)  (  40->  37) 
 (  41->  38)  (  42->  39)  (  43->  46)  (  44->  47)  (  45->  48) 
 (  46->  43)  (  47->  44)  (  48->  45) 

 ptrans:     0.3333333     0.8333333     0.0000000
 rotmap:
 (   1->   9)  (   2->   4)  (   3->   5)  (   4->  12)  (   5->   1) 
 (   6->   2)  (   7->   3)  (   8->  10)  (   9->  11)  (  10->   6) 
 (  11->   7)  (  12->   8)  (  13->  23)  (  14->  15)  (  15->  16) 
 (  16->  20)  (  17->  18)  (  18->  13)  (  19->  17)  (  20->  21) 
 (  21->  22)  (  22->  14)  (  23->  24)  (  24->  19)  (  25->  26) 
 (  26->  36)  (  27->  28)  (  28->  29)  (  29->  33)  (  30->  25) 
 (  31->  32)  (  32->  30)  (  33->  34)  (  34->  35)  (  35->  27) 
 (  36->  31)  (  37->  45)  (  38->  40)  (  39->  41)  (  40->  48) 
 (  41->  37)  (  42->  38)  (  43->  39)  (  44->  46)  (  45->  47) 
 (  46->  42)  (  47->  43)  (  48->  44) 

 ptrans:     0.1666667     0.6666667     0.0000000
 rotmap:
 (   1->   8)  (   2->   9)  (   3->   4)  (   4->  11)  (   5->  12) 
 (   6->   1)  (   7->   2)  (   8->   3)  (   9->  10)  (  10->   5) 
 (  11->   6)  (  12->   7)  (  13->  21)  (  14->  13)  (  15->  23) 
 (  16->  24)  (  17->  16)  (  18->  20)  (  19->  15)  (  20->  19) 
 (  21->  17)  (  22->  18)  (  23->  22)  (  24->  14)  (  25->  33) 
 (  26->  34)  (  27->  26)  (  28->  36)  (  29->  31)  (  30->  29) 
 (  31->  27)  (  32->  28)  (  33->  32)  (  34->  30)  (  35->  25) 
 (  36->  35)  (  37->  44)  (  38->  45)  (  39->  40)  (  40->  47) 
 (  41->  48)  (  42->  37)  (  43->  38)  (  44->  39)  (  45->  46) 
 (  46->  41)  (  47->  42)  (  48->  43) 

 ptrans:     0.0000000     0.5000000     0.0000000
 rotmap:
 (   1->   7)  (   2->   8)  (   3->   9)  (   4->  10)  (   5->  11) 
 (   6->  12)  (   7->   1)  (   8->   2)  (   9->   3)  (  10->   4) 
 (  11->   5)  (  12->   6)  (  13->  19)  (  14->  20)  (  15->  21) 
 (  16->  22)  (  17->  23)  (  18->  24)  (  19->  13)  (  20->  14) 
 (  21->  15)  (  22->  16)  (  23->  17)  (  24->  18)  (  25->  31) 
 (  26->  32)  (  27->  33)  (  28->  34)  (  29->  35)  (  30->  36) 
 (  31->  25)  (  32->  26)  (  33->  27)  (  34->  28)  (  35->  29) 
 (  36->  30)  (  37->  43)  (  38->  44)  (  39->  45)  (  40->  46) 
 (  41->  47)  (  42->  48)  (  43->  37)  (  44->  38)  (  45->  39) 
 (  46->  40)  (  47->  41)  (  48->  42) 


 irot  :   2
 --------------------------------------------------------------------
 isymop:   0   1   0
          -1  -1   0
           0   0   1

 gtrans:     0.0000000     0.0000000     0.0000000

 ptrans:     0.0000000     0.0000000     0.0000000
 rotmap:
 (   1->   1)  (   2->   8)  (   3->   3)  (   4->   7)  (   5->   2) 
 (   6->   9)  (   7->  10)  (   8->   5)  (   9->  12)  (  10->   4) 
 (  11->  11)  (  12->   6)  (  13->  20)  (  14->  21)  (  15->  19) 
 (  16->  14)  (  17->  15)  (  18->  13)  (  19->  17)  (  20->  18) 
 (  21->  16)  (  22->  23)  (  23->  24)  (  24->  22)  (  25->  33) 
 (  26->  31)  (  27->  32)  (  28->  27)  (  29->  25)  (  30->  26) 
 (  31->  30)  (  32->  28)  (  33->  29)  (  34->  36)  (  35->  34) 
 (  36->  35)  (  37->  37)  (  38->  44)  (  39->  39)  (  40->  43) 
 (  41->  38)  (  42->  45)  (  43->  46)  (  44->  41)  (  45->  48) 
 (  46->  40)  (  47->  47)  (  48->  42) 

 ptrans:     0.8333333     0.8333333     0.0000000
 rotmap:
 (   1->  12)  (   2->   7)  (   3->   2)  (   4->   6)  (   5->   1) 
 (   6->   8)  (   7->   3)  (   8->   4)  (   9->  11)  (  10->   9) 
 (  11->  10)  (  12->   5)  (  13->  24)  (  14->  19)  (  15->  14) 
 (  16->  18)  (  17->  13)  (  18->  20)  (  19->  15)  (  20->  16) 
 (  21->  23)  (  22->  21)  (  23->  22)  (  24->  17)  (  25->  31) 
 (  26->  35)  (  27->  27)  (  28->  25)  (  29->  29)  (  30->  33) 
 (  31->  28)  (  32->  26)  (  33->  36)  (  34->  34)  (  35->  32) 
 (  36->  30)  (  37->  48)  (  38->  43)  (  39->  38)  (  40->  42) 
 (  41->  37)  (  42->  44)  (  43->  39)  (  44->  40)  (  45->  47) 
 (  46->  45)  (  47->  46)  (  48->  41) 

 ptrans:     0.6666667     0.6666667     0.0000000
 rotmap:
 (   1->  11)  (   2->   6)  (   3->   1)  (   4->   5)  (   5->  12) 
 (   6->   7)  (   7->   2)  (   8->   9)  (   9->  10)  (  10->   8) 
 (  11->   3)  (  12->   4)  (  13->  22)  (  14->  14)  (  15->  18) 
 (  16->  16)  (  17->  20)  (  18->  24)  (  19->  13)  (  20->  23) 
 (  21->  21)  (  22->  19)  (  23->  17)  (  24->  15)  (  25->  35) 
 (  26->  30)  (  27->  25)  (  28->  29)  (  29->  36)  (  30->  31) 
 (  31->  26)  (  32->  33)  (  33->  34)  (  34->  32)  (  35->  27) 
 (  36->  28)  (  37->  47)  (  38->  42)  (  39->  37)  (  40->  41) 
 (  41->  48)  (  42->  43)  (  43->  38)  (  44->  45)  (  45->  46) 
 (  46->  44)  (  47->  39)  (  48->  40) 

 ptrans:     0.5000000     0.5000000     0.0000000
 rotmap:
 (   1->  10)  (   2->   5)  (   3->  12)  (   4->   4)  (   5->  11) 
 (   6->   6)  (   7->   1)  (   8->   8)  (   9->   3)  (  10->   7) 
 (  11->   2)  (  12->   9)  (  13->  17)  (  14->  18)  (  15->  16) 
 (  16->  23)  (  17->  24)  (  18->  22)  (  19->  20)  (  20->  21) 
 (  21->  19)  (  22->  14)  (  23->  15)  (  24->  13)  (  25->  30) 
 (  26->  28)  (  27->  29)  (  28->  36)  (  29->  34)  (  30->  35) 
 (  31->  33)  (  32->  31)  (  33->  32)  (  34->  27)  (  35->  25) 
 (  36->  26)  (  37->  46)  (  38->  41)  (  39->  48)  (  40->  40) 
 (  41->  47)  (  42->  42)  (  43->  37)  (  44->  44)  (  45->  39) 
 (  46->  43)  (  47->  38)  (  48->  45) 

 ptrans:     0.3333333     0.3333333     0.0000000
 rotmap:
 (   1->   3)  (   2->   4)  (   3->  11)  (   4->   9)  (   5->  10) 
 (   6->   5)  (   7->  12)  (   8->   7)  (   9->   2)  (  10->   6) 
 (  11->   1)  (  12->   8)  (  13->  15)  (  14->  16)  (  15->  23) 
 (  16->  21)  (  17->  22)  (  18->  17)  (  19->  24)  (  20->  19) 
 (  21->  14)  (  22->  18)  (  23->  13)  (  24->  20)  (  25->  28) 
 (  26->  26)  (  27->  36)  (  28->  34)  (  29->  32)  (  30->  30) 
 (  31->  31)  (  32->  35)  (  33->  27)  (  34->  25)  (  35->  29) 
 (  36->  33)  (  37->  39)  (  38->  40)  (  39->  47)  (  40->  45) 
 (  41->  46)  (  42->  41)  (  43->  48)  (  44->  43)  (  45->  38) 
 (  46->  42)  (  47->  37)  (  48->  44) 

 ptrans:     0.1666667     0.1666667     0.0000000
 rotmap:
 (   1->   2)  (   2->   9)  (   3->  10)  (   4->   8)  (   5->   3) 
 (   6->   4)  (   7->  11)  (   8->   6)  (   9->   1)  (  10->   5) 
 (  11->  12)  (  12->   7)  (  13->  13)  (  14->  23)  (  15->  21) 
 (  16->  19)  (  17->  17)  (  18->  15)  (  19->  22)  (  20->  14) 
 (  21->  18)  (  22->  16)  (  23->  20)  (  24->  24)  (  25->  26) 
 (  26->  33)  (  27->  34)  (  28->  32)  (  29->  27)  (  30->  28) 
 (  31->  35)  (  32->  30)  (  33->  25)  (  34->  29)  (  35->  36) 
 (  36->  31)  (  37->  38)  (  38->  45)  (  39->  46)  (  40->  44) 
 (  41->  39)  (  42->  40)  (  43->  47)  (  44->  42)  (  45->  37) 
 (  46->  41)  (  47->  48)  (  48->  43) 

 ptrans:     0.8333333     0.3333333     0.0000000
 rotmap:
 (   1->   6)  (   2->   1)  (   3->   8)  (   4->  12)  (   5->   7) 
 (   6->   2)  (   7->   9)  (   8->  10)  (   9->   5)  (  10->   3) 
 (  11->   4)  (  12->  11)  (  13->  18)  (  14->  13)  (  15->  20) 
 (  16->  24)  (  17->  19)  (  18->  14)  (  19->  21)  (  20->  22) 
 (  21->  17)  (  22->  15)  (  23->  16)  (  24->  23)  (  25->  25) 
 (  26->  29)  (  27->  33)  (  28->  31)  (  29->  35)  (  30->  27) 
 (  31->  34)  (  32->  32)  (  33->  30)  (  34->  28)  (  35->  26) 
 (  36->  36)  (  37->  42)  (  38->  37)  (  39->  44)  (  40->  48) 
 (  41->  43)  (  42->  38)  (  43->  45)  (  44->  46)  (  45->  41) 
 (  46->  39)  (  47->  40)  (  48->  47) 

 ptrans:     0.6666667     0.1666667     0.0000000
 rotmap:
 (   1->   5)  (   2->  12)  (   3->   7)  (   4->  11)  (   5->   6) 
 (   6->   1)  (   7->   8)  (   8->   3)  (   9->   4)  (  10->   2) 
 (  11->   9)  (  12->  10)  (  13->  16)  (  14->  20)  (  15->  24) 
 (  16->  22)  (  17->  14)  (  18->  18)  (  19->  19)  (  20->  17) 
 (  21->  15)  (  22->  13)  (  23->  23)  (  24->  21)  (  25->  29) 
 (  26->  36)  (  27->  31)  (  28->  35)  (  29->  30)  (  30->  25) 
 (  31->  32)  (  32->  27)  (  33->  28)  (  34->  26)  (  35->  33) 
 (  36->  34)  (  37->  41)  (  38->  48)  (  39->  43)  (  40->  47) 
 (  41->  42)  (  42->  37)  (  43->  44)  (  44->  39)  (  45->  40) 
 (  46->  38)  (  47->  45)  (  48->  46) 

 ptrans:     0.5000000     0.0000000     0.0000000
 rotmap:
 (   1->   4)  (   2->  11)  (   3->   6)  (   4->  10)  (   5->   5) 
 (   6->  12)  (   7->   7)  (   8->   2)  (   9->   9)  (  10->   1) 
 (  11->   8)  (  12->   3)  (  13->  23)  (  14->  24)  (  15->  22) 
 (  16->  17)  (  17->  18)  (  18->  16)  (  19->  14)  (  20->  15) 
 (  21->  13)  (  22->  20)  (  23->  21)  (  24->  19)  (  25->  36) 
 (  26->  34)  (  27->  35)  (  28->  30)  (  29->  28)  (  30->  29) 
 (  31->  27)  (  32->  25)  (  33->  26)  (  34->  33)  (  35->  31) 
 (  36->  32)  (  37->  40)  (  38->  47)  (  39->  42)  (  40->  46) 
 (  41->  41)  (  42->  48)  (  43->  43)  (  44->  38)  (  45->  45) 
 (  46->  37)  (  47->  44)  (  48->  39) 

 ptrans:     0.3333333     0.8333333     0.0000000
 rotmap:
 (   1->   9)  (   2->  10)  (   3->   5)  (   4->   3)  (   5->   4) 
 (   6->  11)  (   7->   6)  (   8->   1)  (   9->   8)  (  10->  12) 
 (  11->   7)  (  12->   2)  (  13->  21)  (  14->  22)  (  15->  17) 
 (  16->  15)  (  17->  16)  (  18->  23)  (  19->  18)  (  20->  13) 
 (  21->  20)  (  22->  24)  (  23->  19)  (  24->  14)  (  25->  34) 
 (  26->  32)  (  27->  30)  (  28->  28)  (  29->  26)  (  30->  36) 
 (  31->  25)  (  32->  29)  (  33->  33)  (  34->  31)  (  35->  35) 
 (  36->  27)  (  37->  45)  (  38->  46)  (  39->  41)  (  40->  39) 
 (  41->  40)  (  42->  47)  (  43->  42)  (  44->  37)  (  45->  44) 
 (  46->  48)  (  47->  43)  (  48->  38) 

 ptrans:     0.1666667     0.6666667     0.0000000
 rotmap:
 (   1->   8)  (   2->   3)  (   3->   4)  (   4->   2)  (   5->   9) 
 (   6->  10)  (   7->   5)  (   8->  12)  (   9->   7)  (  10->  11) 
 (  11->   6)  (  12->   1)  (  13->  19)  (  14->  17)  (  15->  15) 
 (  16->  13)  (  17->  23)  (  18->  21)  (  19->  16)  (  20->  20) 
 (  21->  24)  (  22->  22)  (  23->  14)  (  24->  18)  (  25->  32) 
 (  26->  27)  (  27->  28)  (  28->  26)  (  29->  33)  (  30->  34) 
 (  31->  29)  (  32->  36)  (  33->  31)  (  34->  35)  (  35->  30) 
 (  36->  25)  (  37->  44)  (  38->  39)  (  39->  40)  (  40->  38) 
 (  41->  45)  (  42->  46)  (  43->  41)  (  44->  48)  (  45->  43) 
 (  46->  47)  (  47->  42)  (  48->  37) 

 ptrans:     0.0000000     0.5000000     0.0000000
 rotmap:
 (   1->   7)  (   2->   2)  (   3->   9)  (   4->   1)  (   5->   8) 
 (   6->   3)  (   7->   4)  (   8->  11)  (   9->   6)  (  10->  10) 
 (  11->   5)  (  12->  12)  (  13->  14)  (  14->  15)  (  15->  13) 
 (  16->  20)  (  17->  21)  (  18->  19)  (  19->  23)  (  20->  24) 
 (  21->  22)  (  22->  17)  (  23->  18)  (  24->  16)  (  25->  27) 
 (  26->  25)  (  27->  26)  (  28->  33)  (  29->  31)  (  30->  32) 
 (  31->  36)  (  32->  34)  (  33->  35)  (  34->  30)  (  35->  28) 
 (  36->  29)  (  37->  43)  (  38->  38)  (  39->  45)  (  40->  37) 
 (  41->  44)  (  42->  39)  (  43->  40)  (  44->  47)  (  45->  42) 
 (  46->  46)  (  47->  41)  (  48->  48) 


 irot  :   3
 --------------------------------------------------------------------
 isymop:  -1  -1   0
           1   0   0
           0   0   1

 gtrans:     0.0000000     0.0000000     0.0000000

 ptrans:     0.0000000     0.0000000     0.0000000
 rotmap:
 (   1->   1)  (   2->   5)  (   3->   3)  (   4->  10)  (   5->   8) 
 (   6->  12)  (   7->   4)  (   8->   2)  (   9->   6)  (  10->   7) 
 (  11->  11)  (  12->   9)  (  13->  18)  (  14->  16)  (  15->  17) 
 (  16->  21)  (  17->  19)  (  18->  20)  (  19->  15)  (  20->  13) 
 (  21->  14)  (  22->  24)  (  23->  22)  (  24->  23)  (  25->  29) 
 (  26->  30)  (  27->  28)  (  28->  32)  (  29->  33)  (  30->  31) 
 (  31->  26)  (  32->  27)  (  33->  25)  (  34->  35)  (  35->  36) 
 (  36->  34)  (  37->  37)  (  38->  41)  (  39->  39)  (  40->  46) 
 (  41->  44)  (  42->  48)  (  43->  40)  (  44->  38)  (  45->  42) 
 (  46->  43)  (  47->  47)  (  48->  45) 

 ptrans:     0.8333333     0.8333333     0.0000000
 rotmap:
 (   1->  12)  (   2->   4)  (   3->   2)  (   4->   3)  (   5->   7) 
 (   6->  11)  (   7->   9)  (   8->   1)  (   9->   5)  (  10->   6) 
 (  11->  10)  (  12->   8)  (  13->  16)  (  14->  23)  (  15->  15) 
 (  16->  19)  (  17->  14)  (  18->  24)  (  19->  13)  (  20->  20) 
 (  21->  18)  (  22->  22)  (  23->  17)  (  24->  21)  (  25->  36) 
 (  26->  28)  (  27->  26)  (  28->  27)  (  29->  31)  (  30->  35) 
 (  31->  33)  (  32->  25)  (  33->  29)  (  34->  30)  (  35->  34) 
 (  36->  32)  (  37->  48)  (  38->  40)  (  39->  38)  (  40->  39) 
 (  41->  43)  (  42->  47)  (  43->  45)  (  44->  37)  (  45->  41) 
 (  46->  42)  (  47->  46)  (  48->  44) 

 ptrans:     0.6666667     0.6666667     0.0000000
 rotmap:
 (   1->  11)  (   2->   9)  (   3->   1)  (   4->   2)  (   5->   6) 
 (   6->  10)  (   7->   8)  (   8->  12)  (   9->   4)  (  10->   5) 
 (  11->   3)  (  12->   7)  (  13->  23)  (  14->  21)  (  15->  13) 
 (  16->  14)  (  17->  18)  (  18->  22)  (  19->  20)  (  20->  24) 
 (  21->  16)  (  22->  17)  (  23->  15)  (  24->  19)  (  25->  34) 
 (  26->  26)  (  27->  33)  (  28->  25)  (  29->  35)  (  30->  30) 
 (  31->  31)  (  32->  29)  (  33->  36)  (  34->  28)  (  35->  32) 
 (  36->  27)  (  37->  47)  (  38->  45)  (  39->  37)  (  40->  38) 
 (  41->  42)  (  42->  46)  (  43->  44)  (  44->  48)  (  45->  40) 
 (  46->  41)  (  47->  39)  (  48->  43) 

 ptrans:     0.5000000     0.5000000     0.0000000
 rotmap:
 (   1->  10)  (   2->   8)  (   3->  12)  (   4->   1)  (   5->   5) 
 (   6->   3)  (   7->   7)  (   8->  11)  (   9->   9)  (  10->   4) 
 (  11->   2)  (  12->   6)  (  13->  21)  (  14->  19)  (  15->  20) 
 (  16->  18)  (  17->  16)  (  18->  17)  (  19->  24)  (  20->  22) 
 (  21->  23)  (  22->  15)  (  23->  13)  (  24->  14)  (  25->  32) 
 (  26->  33)  (  27->  31)  (  28->  29)  (  29->  30)  (  30->  28) 
 (  31->  35)  (  32->  36)  (  33->  34)  (  34->  26)  (  35->  27) 
 (  36->  25)  (  37->  46)  (  38->  44)  (  39->  48)  (  40->  37) 
 (  41->  41)  (  42->  39)  (  43->  43)  (  44->  47)  (  45->  45) 
 (  46->  40)  (  47->  38)  (  48->  42) 

 ptrans:     0.3333333     0.3333333     0.0000000
 rotmap:
 (   1->   3)  (   2->   7)  (   3->  11)  (   4->  12)  (   5->   4) 
 (   6->   2)  (   7->   6)  (   8->  10)  (   9->   8)  (  10->   9) 
 (  11->   1)  (  12->   5)  (  13->  19)  (  14->  14)  (  15->  24) 
 (  16->  16)  (  17->  23)  (  18->  15)  (  19->  22)  (  20->  17) 
 (  21->  21)  (  22->  13)  (  23->  20)  (  24->  18)  (  25->  27) 
 (  26->  31)  (  27->  35)  (  28->  36)  (  29->  28)  (  30->  26) 
 (  31->  30)  (  32->  34)  (  33->  32)  (  34->  33)  (  35->  25) 
 (  36->  29)  (  37->  39)  (  38->  43)  (  39->  47)  (  40->  48) 
 (  41->  40)  (  42->  38)  (  43->  42)  (  44->  46)  (  45->  44) 
 (  46->  45)  (  47->  37)  (  48->  41) 

 ptrans:     0.1666667     0.1666667     0.0000000
 rotmap:
 (   1->   2)  (   2->   6)  (   3->  10)  (   4->  11)  (   5->   9) 
 (   6->   1)  (   7->   5)  (   8->   3)  (   9->   7)  (  10->   8) 
 (  11->  12)  (  12->   4)  (  13->  14)  (  14->  18)  (  15->  22) 
 (  16->  23)  (  17->  21)  (  18->  13)  (  19->  17)  (  20->  15) 
 (  21->  19)  (  22->  20)  (  23->  24)  (  24->  16)  (  25->  25) 
 (  26->  35)  (  27->  30)  (  28->  34)  (  29->  26)  (  30->  33) 
 (  31->  28)  (  32->  32)  (  33->  27)  (  34->  31)  (  35->  29) 
 (  36->  36)  (  37->  38)  (  38->  42)  (  39->  46)  (  40->  47) 
 (  41->  45)  (  42->  37)  (  43->  41)  (  44->  39)  (  45->  43) 
 (  46->  44)  (  47->  48)  (  48->  40) 

 ptrans:     0.8333333     0.3333333     0.0000000
 rotmap:
 (   1->   6)  (   2->  10)  (   3->   8)  (   4->   9)  (   5->   1) 
 (   6->   5)  (   7->   3)  (   8->   7)  (   9->  11)  (  10->  12) 
 (  11->   4)  (  12->   2)  (  13->  22)  (  14->  17)  (  15->  21) 
 (  16->  13)  (  17->  20)  (  18->  18)  (  19->  19)  (  20->  14) 
 (  21->  24)  (  22->  16)  (  23->  23)  (  24->  15)  (  25->  30) 
 (  26->  34)  (  27->  32)  (  28->  33)  (  29->  25)  (  30->  29) 
 (  31->  27)  (  32->  31)  (  33->  35)  (  34->  36)  (  35->  28) 
 (  36->  26)  (  37->  42)  (  38->  46)  (  39->  44)  (  40->  45) 
 (  41->  37)  (  42->  41)  (  43->  39)  (  44->  43)  (  45->  47) 
 (  46->  48)  (  47->  40)  (  48->  38) 

 ptrans:     0.6666667     0.1666667     0.0000000
 rotmap:
 (   1->   5)  (   2->   3)  (   3->   7)  (   4->   8)  (   5->  12) 
 (   6->   4)  (   7->   2)  (   8->   6)  (   9->  10)  (  10->  11) 
 (  11->   9)  (  12->   1)  (  13->  17)  (  14->  15)  (  15->  19) 
 (  16->  20)  (  17->  24)  (  18->  16)  (  19->  14)  (  20->  18) 
 (  21->  22)  (  22->  23)  (  23->  21)  (  24->  13)  (  25->  28) 
 (  26->  32)  (  27->  27)  (  28->  31)  (  29->  29)  (  30->  36) 
 (  31->  25)  (  32->  35)  (  33->  30)  (  34->  34)  (  35->  26) 
 (  36->  33)  (  37->  41)  (  38->  39)  (  39->  43)  (  40->  44) 
 (  41->  48)  (  42->  40)  (  43->  38)  (  44->  42)  (  45->  46) 
 (  46->  47)  (  47->  45)  (  48->  37) 

 ptrans:     0.5000000     0.0000000     0.0000000
 rotmap:
 (   1->   4)  (   2->   2)  (   3->   6)  (   4->   7)  (   5->  11) 
 (   6->   9)  (   7->   1)  (   8->   5)  (   9->   3)  (  10->  10) 
 (  11->   8)  (  12->  12)  (  13->  15)  (  14->  13)  (  15->  14) 
 (  16->  24)  (  17->  22)  (  18->  23)  (  19->  18)  (  20->  16) 
 (  21->  17)  (  22->  21)  (  23->  19)  (  24->  20)  (  25->  26) 
 (  26->  27)  (  27->  25)  (  28->  35)  (  29->  36)  (  30->  34) 
 (  31->  29)  (  32->  30)  (  33->  28)  (  34->  32)  (  35->  33) 
 (  36->  31)  (  37->  40)  (  38->  38)  (  39->  42)  (  40->  43) 
 (  41->  47)  (  42->  45)  (  43->  37)  (  44->  41)  (  45->  39) 
 (  46->  46)  (  47->  44)  (  48->  48) 

 ptrans:     0.3333333     0.8333333     0.0000000
 rotmap:
 (   1->   9)  (   2->   1)  (   3->   5)  (   4->   6)  (   5->  10) 
 (   6->   8)  (   7->  12)  (   8->   4)  (   9->   2)  (  10->   3) 
 (  11->   7)  (  12->  11)  (  13->  13)  (  14->  20)  (  15->  18) 
 (  16->  22)  (  17->  17)  (  18->  21)  (  19->  16)  (  20->  23) 
 (  21->  15)  (  22->  19)  (  23->  14)  (  24->  24)  (  25->  33) 
 (  26->  25)  (  27->  29)  (  28->  30)  (  29->  34)  (  30->  32) 
 (  31->  36)  (  32->  28)  (  33->  26)  (  34->  27)  (  35->  31) 
 (  36->  35)  (  37->  45)  (  38->  37)  (  39->  41)  (  40->  42) 
 (  41->  46)  (  42->  44)  (  43->  48)  (  44->  40)  (  45->  38) 
 (  46->  39)  (  47->  43)  (  48->  47) 

 ptrans:     0.1666667     0.6666667     0.0000000
 rotmap:
 (   1->   8)  (   2->  12)  (   3->   4)  (   4->   5)  (   5->   3) 
 (   6->   7)  (   7->  11)  (   8->   9)  (   9->   1)  (  10->   2) 
 (  11->   6)  (  12->  10)  (  13->  20)  (  14->  24)  (  15->  16) 
 (  16->  17)  (  17->  15)  (  18->  19)  (  19->  23)  (  20->  21) 
 (  21->  13)  (  22->  14)  (  23->  18)  (  24->  22)  (  25->  31) 
 (  26->  29)  (  27->  36)  (  28->  28)  (  29->  32)  (  30->  27) 
 (  31->  34)  (  32->  26)  (  33->  33)  (  34->  25)  (  35->  35) 
 (  36->  30)  (  37->  44)  (  38->  48)  (  39->  40)  (  40->  41) 
 (  41->  39)  (  42->  43)  (  43->  47)  (  44->  45)  (  45->  37) 
 (  46->  38)  (  47->  42)  (  48->  46) 

 ptrans:     0.0000000     0.5000000     0.0000000
 rotmap:
 (   1->   7)  (   2->  11)  (   3->   9)  (   4->   4)  (   5->   2) 
 (   6->   6)  (   7->  10)  (   8->   8)  (   9->  12)  (  10->   1) 
 (  11->   5)  (  12->   3)  (  13->  24)  (  14->  22)  (  15->  23) 
 (  16->  15)  (  17->  13)  (  18->  14)  (  19->  21)  (  20->  19) 
 (  21->  20)  (  22->  18)  (  23->  16)  (  24->  17)  (  25->  35) 
 (  26->  36)  (  27->  34)  (  28->  26)  (  29->  27)  (  30->  25) 
 (  31->  32)  (  32->  33)  (  33->  31)  (  34->  29)  (  35->  30) 
 (  36->  28)  (  37->  43)  (  38->  47)  (  39->  45)  (  40->  40) 
 (  41->  38)  (  42->  42)  (  43->  46)  (  44->  44)  (  45->  48) 
 (  46->  37)  (  47->  41)  (  48->  39) 


 irot  :   4
 --------------------------------------------------------------------
 isymop:  -1   0   0
           1   1   0
           0   0   1

 gtrans:     0.0000000     0.0000000     0.0000000

 ptrans:     0.0000000     0.0000000     0.0000000
 rotmap:
 (   1->   1)  (   2->   6)  (   3->  11)  (   4->  10)  (   5->   9) 
 (   6->   2)  (   7->   7)  (   8->  12)  (   9->   5)  (  10->   4) 
 (  11->   3)  (  12->   8)  (  13->  18)  (  14->  14)  (  15->  22) 
 (  16->  21)  (  17->  23)  (  18->  13)  (  19->  24)  (  20->  20) 
 (  21->  16)  (  22->  15)  (  23->  17)  (  24->  19)  (  25->  25) 
 (  26->  30)  (  27->  35)  (  28->  34)  (  29->  33)  (  30->  26) 
 (  31->  31)  (  32->  36)  (  33->  29)  (  34->  28)  (  35->  27) 
 (  36->  32)  (  37->  37)  (  38->  42)  (  39->  47)  (  40->  46) 
 (  41->  45)  (  42->  38)  (  43->  43)  (  44->  48)  (  45->  41) 
 (  46->  40)  (  47->  39)  (  48->  44) 

 ptrans:     0.8333333     0.8333333     0.0000000
 rotmap:
 (   1->  12)  (   2->   5)  (   3->  10)  (   4->   3)  (   5->   8) 
 (   6->   1)  (   7->   6)  (   8->  11)  (   9->   4)  (  10->   9) 
 (  11->   2)  (  12->   7)  (  13->  16)  (  14->  18)  (  15->  17) 
 (  16->  19)  (  17->  21)  (  18->  20)  (  19->  22)  (  20->  24) 
 (  21->  23)  (  22->  13)  (  23->  15)  (  24->  14)  (  25->  29) 
 (  26->  28)  (  27->  30)  (  28->  32)  (  29->  31)  (  30->  33) 
 (  31->  35)  (  32->  34)  (  33->  36)  (  34->  26)  (  35->  25) 
 (  36->  27)  (  37->  48)  (  38->  41)  (  39->  46)  (  40->  39) 
 (  41->  44)  (  42->  37)  (  43->  42)  (  44->  47)  (  45->  40) 
 (  46->  45)  (  47->  38)  (  48->  43) 

 ptrans:     0.6666667     0.6666667     0.0000000
 rotmap:
 (   1->  11)  (   2->   4)  (   3->   3)  (   4->   2)  (   5->   7) 
 (   6->  12)  (   7->   5)  (   8->  10)  (   9->   9)  (  10->   8) 
 (  11->   1)  (  12->   6)  (  13->  23)  (  14->  16)  (  15->  15) 
 (  16->  14)  (  17->  19)  (  18->  24)  (  19->  17)  (  20->  22) 
 (  21->  21)  (  22->  20)  (  23->  13)  (  24->  18)  (  25->  36) 
 (  26->  26)  (  27->  28)  (  28->  27)  (  29->  35)  (  30->  31) 
 (  31->  30)  (  32->  32)  (  33->  34)  (  34->  33)  (  35->  29) 
 (  36->  25)  (  37->  47)  (  38->  40)  (  39->  39)  (  40->  38) 
 (  41->  43)  (  42->  48)  (  43->  41)  (  44->  46)  (  45->  45) 
 (  46->  44)  (  47->  37)  (  48->  42) 

 ptrans:     0.5000000     0.5000000     0.0000000
 rotmap:
 (   1->  10)  (   2->   9)  (   3->   2)  (   4->   1)  (   5->   6) 
 (   6->  11)  (   7->   4)  (   8->   3)  (   9->   8)  (  10->   7) 
 (  11->  12)  (  12->   5)  (  13->  21)  (  14->  23)  (  15->  13) 
 (  16->  18)  (  17->  14)  (  18->  22)  (  19->  15)  (  20->  17) 
 (  21->  19)  (  22->  24)  (  23->  20)  (  24->  16)  (  25->  34) 
 (  26->  33)  (  27->  26)  (  28->  25)  (  29->  30)  (  30->  35) 
 (  31->  28)  (  32->  27)  (  33->  32)  (  34->  31)  (  35->  36) 
 (  36->  29)  (  37->  46)  (  38->  45)  (  39->  38)  (  40->  37) 
 (  41->  42)  (  42->  47)  (  43->  40)  (  44->  39)  (  45->  44) 
 (  46->  43)  (  47->  48)  (  48->  41) 

 ptrans:     0.3333333     0.3333333     0.0000000
 rotmap:
 (   1->   3)  (   2->   8)  (   3->   1)  (   4->  12)  (   5->   5) 
 (   6->  10)  (   7->   9)  (   8->   2)  (   9->   7)  (  10->   6) 
 (  11->  11)  (  12->   4)  (  13->  19)  (  14->  21)  (  15->  20) 
 (  16->  16)  (  17->  18)  (  18->  17)  (  19->  13)  (  20->  15) 
 (  21->  14)  (  22->  22)  (  23->  24)  (  24->  23)  (  25->  32) 
 (  26->  31)  (  27->  33)  (  28->  29)  (  29->  28)  (  30->  30) 
 (  31->  26)  (  32->  25)  (  33->  27)  (  34->  35)  (  35->  34) 
 (  36->  36)  (  37->  39)  (  38->  44)  (  39->  37)  (  40->  48) 
 (  41->  41)  (  42->  46)  (  43->  45)  (  44->  38)  (  45->  43) 
 (  46->  42)  (  47->  47)  (  48->  40) 

 ptrans:     0.1666667     0.1666667     0.0000000
 rotmap:
 (   1->   2)  (   2->   7)  (   3->  12)  (   4->  11)  (   5->   4) 
 (   6->   3)  (   7->   8)  (   8->   1)  (   9->   6)  (  10->   5) 
 (  11->  10)  (  12->   9)  (  13->  14)  (  14->  19)  (  15->  24) 
 (  16->  23)  (  17->  16)  (  18->  15)  (  19->  20)  (  20->  13) 
 (  21->  18)  (  22->  17)  (  23->  22)  (  24->  21)  (  25->  27) 
 (  26->  35)  (  27->  31)  (  28->  36)  (  29->  26)  (  30->  28) 
 (  31->  33)  (  32->  29)  (  33->  25)  (  34->  30)  (  35->  32) 
 (  36->  34)  (  37->  38)  (  38->  43)  (  39->  48)  (  40->  47) 
 (  41->  40)  (  42->  39)  (  43->  44)  (  44->  37)  (  45->  42) 
 (  46->  41)  (  47->  46)  (  48->  45) 

 ptrans:     0.8333333     0.3333333     0.0000000
 rotmap:
 (   1->   6)  (   2->  11)  (   3->   4)  (   4->   9)  (   5->   2) 
 (   6->   7)  (   7->  12)  (   8->   5)  (   9->  10)  (  10->   3) 
 (  11->   8)  (  12->   1)  (  13->  22)  (  14->  24)  (  15->  23) 
 (  16->  13)  (  17->  15)  (  18->  14)  (  19->  16)  (  20->  18) 
 (  21->  17)  (  22->  19)  (  23->  21)  (  24->  20)  (  25->  35) 
 (  26->  34)  (  27->  36)  (  28->  26)  (  29->  25)  (  30->  27) 
 (  31->  29)  (  32->  28)  (  33->  30)  (  34->  32)  (  35->  31) 
 (  36->  33)  (  37->  42)  (  38->  47)  (  39->  40)  (  40->  45) 
 (  41->  38)  (  42->  43)  (  43->  48)  (  44->  41)  (  45->  46) 
 (  46->  39)  (  47->  44)  (  48->  37) 

 ptrans:     0.6666667     0.1666667     0.0000000
 rotmap:
 (   1->   5)  (   2->  10)  (   3->   9)  (   4->   8)  (   5->   1) 
 (   6->   6)  (   7->  11)  (   8->   4)  (   9->   3)  (  10->   2) 
 (  11->   7)  (  12->  12)  (  13->  17)  (  14->  22)  (  15->  21) 
 (  16->  20)  (  17->  13)  (  18->  18)  (  19->  23)  (  20->  16) 
 (  21->  15)  (  22->  14)  (  23->  19)  (  24->  24)  (  25->  30) 
 (  26->  32)  (  27->  34)  (  28->  33)  (  29->  29)  (  30->  25) 
 (  31->  36)  (  32->  26)  (  33->  28)  (  34->  27)  (  35->  35) 
 (  36->  31)  (  37->  41)  (  38->  46)  (  39->  45)  (  40->  44) 
 (  41->  37)  (  42->  42)  (  43->  47)  (  44->  40)  (  45->  39) 
 (  46->  38)  (  47->  43)  (  48->  48) 

 ptrans:     0.5000000     0.0000000     0.0000000
 rotmap:
 (   1->   4)  (   2->   3)  (   3->   8)  (   4->   7)  (   5->  12) 
 (   6->   5)  (   7->  10)  (   8->   9)  (   9->   2)  (  10->   1) 
 (  11->   6)  (  12->  11)  (  13->  15)  (  14->  17)  (  15->  19) 
 (  16->  24)  (  17->  20)  (  18->  16)  (  19->  21)  (  20->  23) 
 (  21->  13)  (  22->  18)  (  23->  14)  (  24->  22)  (  25->  28) 
 (  26->  27)  (  27->  32)  (  28->  31)  (  29->  36)  (  30->  29) 
 (  31->  34)  (  32->  33)  (  33->  26)  (  34->  25)  (  35->  30) 
 (  36->  35)  (  37->  40)  (  38->  39)  (  39->  44)  (  40->  43) 
 (  41->  48)  (  42->  41)  (  43->  46)  (  44->  45)  (  45->  38) 
 (  46->  37)  (  47->  42)  (  48->  47) 

 ptrans:     0.3333333     0.8333333     0.0000000
 rotmap:
 (   1->   9)  (   2->   2)  (   3->   7)  (   4->   6)  (   5->  11) 
 (   6->   4)  (   7->   3)  (   8->   8)  (   9->   1)  (  10->  12) 
 (  11->   5)  (  12->  10)  (  13->  13)  (  14->  15)  (  15->  14) 
 (  16->  22)  (  17->  24)  (  18->  23)  (  19->  19)  (  20->  21) 
 (  21->  20)  (  22->  16)  (  23->  18)  (  24->  17)  (  25->  26) 
 (  26->  25)  (  27->  27)  (  28->  35)  (  29->  34)  (  30->  36) 
 (  31->  32)  (  32->  31)  (  33->  33)  (  34->  29)  (  35->  28) 
 (  36->  30)  (  37->  45)  (  38->  38)  (  39->  43)  (  40->  42) 
 (  41->  47)  (  42->  40)  (  43->  39)  (  44->  44)  (  45->  37) 
 (  46->  48)  (  47->  41)  (  48->  46) 

 ptrans:     0.1666667     0.6666667     0.0000000
 rotmap:
 (   1->   8)  (   2->   1)  (   3->   6)  (   4->   5)  (   5->  10) 
 (   6->   9)  (   7->   2)  (   8->   7)  (   9->  12)  (  10->  11) 
 (  11->   4)  (  12->   3)  (  13->  20)  (  14->  13)  (  15->  18) 
 (  16->  17)  (  17->  22)  (  18->  21)  (  19->  14)  (  20->  19) 
 (  21->  24)  (  22->  23)  (  23->  16)  (  24->  15)  (  25->  33) 
 (  26->  29)  (  27->  25)  (  28->  30)  (  29->  32)  (  30->  34) 
 (  31->  27)  (  32->  35)  (  33->  31)  (  34->  36)  (  35->  26) 
 (  36->  28)  (  37->  44)  (  38->  37)  (  39->  42)  (  40->  41) 
 (  41->  46)  (  42->  45)  (  43->  38)  (  44->  43)  (  45->  48) 
 (  46->  47)  (  47->  40)  (  48->  39) 

 ptrans:     0.0000000     0.5000000     0.0000000
 rotmap:
 (   1->   7)  (   2->  12)  (   3->   5)  (   4->   4)  (   5->   3) 
 (   6->   8)  (   7->   1)  (   8->   6)  (   9->  11)  (  10->  10) 
 (  11->   9)  (  12->   2)  (  13->  24)  (  14->  20)  (  15->  16) 
 (  16->  15)  (  17->  17)  (  18->  19)  (  19->  18)  (  20->  14) 
 (  21->  22)  (  22->  21)  (  23->  23)  (  24->  13)  (  25->  31) 
 (  26->  36)  (  27->  29)  (  28->  28)  (  29->  27)  (  30->  32) 
 (  31->  25)  (  32->  30)  (  33->  35)  (  34->  34)  (  35->  33) 
 (  36->  26)  (  37->  43)  (  38->  48)  (  39->  41)  (  40->  40) 
 (  41->  39)  (  42->  44)  (  43->  37)  (  44->  42)  (  45->  47) 
 (  46->  46)  (  47->  45)  (  48->  38) 


 irot  :   5
 --------------------------------------------------------------------
 isymop:   0  -1   0
          -1   0   0
           0   0   1

 gtrans:     0.0000000     0.0000000     0.0000000

 ptrans:     0.0000000     0.0000000     0.0000000
 rotmap:
 (   1->   1)  (   2->  12)  (   3->  11)  (   4->   7)  (   5->   6) 
 (   6->   5)  (   7->   4)  (   8->   9)  (   9->   8)  (  10->  10) 
 (  11->   3)  (  12->   2)  (  13->  20)  (  14->  16)  (  15->  24) 
 (  16->  14)  (  17->  22)  (  18->  18)  (  19->  23)  (  20->  13) 
 (  21->  21)  (  22->  17)  (  23->  19)  (  24->  15)  (  25->  29) 
 (  26->  31)  (  27->  36)  (  28->  35)  (  29->  25)  (  30->  30) 
 (  31->  26)  (  32->  34)  (  33->  33)  (  34->  32)  (  35->  28) 
 (  36->  27)  (  37->  37)  (  38->  48)  (  39->  47)  (  40->  43) 
 (  41->  42)  (  42->  41)  (  43->  40)  (  44->  45)  (  45->  44) 
 (  46->  46)  (  47->  39)  (  48->  38) 

 ptrans:     0.8333333     0.8333333     0.0000000
 rotmap:
 (   1->  12)  (   2->  11)  (   3->  10)  (   4->   6)  (   5->   5) 
 (   6->   4)  (   7->   9)  (   8->   8)  (   9->   7)  (  10->   3) 
 (  11->   2)  (  12->   1)  (  13->  24)  (  14->  23)  (  15->  22) 
 (  16->  18)  (  17->  17)  (  18->  16)  (  19->  21)  (  20->  20) 
 (  21->  19)  (  22->  15)  (  23->  14)  (  24->  13)  (  25->  36) 
 (  26->  35)  (  27->  34)  (  28->  30)  (  29->  29)  (  30->  28) 
 (  31->  33)  (  32->  32)  (  33->  31)  (  34->  27)  (  35->  26) 
 (  36->  25)  (  37->  48)  (  38->  47)  (  39->  46)  (  40->  42) 
 (  41->  41)  (  42->  40)  (  43->  45)  (  44->  44)  (  45->  43) 
 (  46->  39)  (  47->  38)  (  48->  37) 

 ptrans:     0.6666667     0.6666667     0.0000000
 rotmap:
 (   1->  11)  (   2->  10)  (   3->   3)  (   4->   5)  (   5->   4) 
 (   6->   9)  (   7->   8)  (   8->   7)  (   9->   6)  (  10->   2) 
 (  11->   1)  (  12->  12)  (  13->  22)  (  14->  21)  (  15->  17) 
 (  16->  16)  (  17->  15)  (  18->  23)  (  19->  19)  (  20->  24) 
 (  21->  14)  (  22->  13)  (  23->  18)  (  24->  20)  (  25->  34) 
 (  26->  30)  (  27->  32)  (  28->  28)  (  29->  36)  (  30->  26) 
 (  31->  31)  (  32->  27)  (  33->  35)  (  34->  25)  (  35->  33) 
 (  36->  29)  (  37->  47)  (  38->  46)  (  39->  39)  (  40->  41) 
 (  41->  40)  (  42->  45)  (  43->  44)  (  44->  43)  (  45->  42) 
 (  46->  38)  (  47->  37)  (  48->  48) 

 ptrans:     0.5000000     0.5000000     0.0000000
 rotmap:
 (   1->  10)  (   2->   3)  (   3->   2)  (   4->   4)  (   5->   9) 
 (   6->   8)  (   7->   7)  (   8->   6)  (   9->   5)  (  10->   1) 
 (  11->  12)  (  12->  11)  (  13->  17)  (  14->  19)  (  15->  15) 
 (  16->  23)  (  17->  13)  (  18->  21)  (  19->  14)  (  20->  22) 
 (  21->  18)  (  22->  20)  (  23->  16)  (  24->  24)  (  25->  32) 
 (  26->  28)  (  27->  27)  (  28->  26)  (  29->  34)  (  30->  33) 
 (  31->  35)  (  32->  25)  (  33->  30)  (  34->  29)  (  35->  31) 
 (  36->  36)  (  37->  46)  (  38->  39)  (  39->  38)  (  40->  40) 
 (  41->  45)  (  42->  44)  (  43->  43)  (  44->  42)  (  45->  41) 
 (  46->  37)  (  47->  48)  (  48->  47) 

 ptrans:     0.3333333     0.3333333     0.0000000
 rotmap:
 (   1->   3)  (   2->   2)  (   3->   1)  (   4->   9)  (   5->   8) 
 (   6->   7)  (   7->   6)  (   8->   5)  (   9->   4)  (  10->  12) 
 (  11->  11)  (  12->  10)  (  13->  15)  (  14->  14)  (  15->  13) 
 (  16->  21)  (  17->  20)  (  18->  19)  (  19->  18)  (  20->  17) 
 (  21->  16)  (  22->  24)  (  23->  23)  (  24->  22)  (  25->  27) 
 (  26->  26)  (  27->  25)  (  28->  33)  (  29->  32)  (  30->  31) 
 (  31->  30)  (  32->  29)  (  33->  28)  (  34->  36)  (  35->  35) 
 (  36->  34)  (  37->  39)  (  38->  38)  (  39->  37)  (  40->  45) 
 (  41->  44)  (  42->  43)  (  43->  42)  (  44->  41)  (  45->  40) 
 (  46->  48)  (  47->  47)  (  48->  46) 

 ptrans:     0.1666667     0.1666667     0.0000000
 rotmap:
 (   1->   2)  (   2->   1)  (   3->  12)  (   4->   8)  (   5->   7) 
 (   6->   6)  (   7->   5)  (   8->   4)  (   9->   9)  (  10->  11) 
 (  11->  10)  (  12->   3)  (  13->  13)  (  14->  18)  (  15->  20) 
 (  16->  19)  (  17->  24)  (  18->  14)  (  19->  16)  (  20->  15) 
 (  21->  23)  (  22->  22)  (  23->  21)  (  24->  17)  (  25->  25) 
 (  26->  33)  (  27->  29)  (  28->  31)  (  29->  27)  (  30->  35) 
 (  31->  28)  (  32->  36)  (  33->  26)  (  34->  34)  (  35->  30) 
 (  36->  32)  (  37->  38)  (  38->  37)  (  39->  48)  (  40->  44) 
 (  41->  43)  (  42->  42)  (  43->  41)  (  44->  40)  (  45->  45) 
 (  46->  47)  (  47->  46)  (  48->  39) 

 ptrans:     0.8333333     0.3333333     0.0000000
 rotmap:
 (   1->   6)  (   2->   5)  (   3->   4)  (   4->  12)  (   5->  11) 
 (   6->  10)  (   7->   3)  (   8->   2)  (   9->   1)  (  10->   9) 
 (  11->   8)  (  12->   7)  (  13->  18)  (  14->  17)  (  15->  16) 
 (  16->  24)  (  17->  23)  (  18->  22)  (  19->  15)  (  20->  14) 
 (  21->  13)  (  22->  21)  (  23->  20)  (  24->  19)  (  25->  30) 
 (  26->  29)  (  27->  28)  (  28->  36)  (  29->  35)  (  30->  34) 
 (  31->  27)  (  32->  26)  (  33->  25)  (  34->  33)  (  35->  32) 
 (  36->  31)  (  37->  42)  (  38->  41)  (  39->  40)  (  40->  48) 
 (  41->  47)  (  42->  46)  (  43->  39)  (  44->  38)  (  45->  37) 
 (  46->  45)  (  47->  44)  (  48->  43) 

 ptrans:     0.6666667     0.1666667     0.0000000
 rotmap:
 (   1->   5)  (   2->   4)  (   3->   9)  (   4->  11)  (   5->  10) 
 (   6->   3)  (   7->   2)  (   8->   1)  (   9->  12)  (  10->   8) 
 (  11->   7)  (  12->   6)  (  13->  16)  (  14->  15)  (  15->  23) 
 (  16->  22)  (  17->  21)  (  18->  17)  (  19->  13)  (  20->  18) 
 (  21->  20)  (  22->  19)  (  23->  24)  (  24->  14)  (  25->  28) 
 (  26->  36)  (  27->  26)  (  28->  34)  (  29->  30)  (  30->  32) 
 (  31->  25)  (  32->  33)  (  33->  29)  (  34->  31)  (  35->  27) 
 (  36->  35)  (  37->  41)  (  38->  40)  (  39->  45)  (  40->  47) 
 (  41->  46)  (  42->  39)  (  43->  38)  (  44->  37)  (  45->  48) 
 (  46->  44)  (  47->  43)  (  48->  42) 

 ptrans:     0.5000000     0.0000000     0.0000000
 rotmap:
 (   1->   4)  (   2->   9)  (   3->   8)  (   4->  10)  (   5->   3) 
 (   6->   2)  (   7->   1)  (   8->  12)  (   9->  11)  (  10->   7) 
 (  11->   6)  (  12->   5)  (  13->  23)  (  14->  13)  (  15->  21) 
 (  16->  17)  (  17->  19)  (  18->  15)  (  19->  20)  (  20->  16) 
 (  21->  24)  (  22->  14)  (  23->  22)  (  24->  18)  (  25->  26) 
 (  26->  34)  (  27->  33)  (  28->  32)  (  29->  28)  (  30->  27) 
 (  31->  29)  (  32->  31)  (  33->  36)  (  34->  35)  (  35->  25) 
 (  36->  30)  (  37->  40)  (  38->  45)  (  39->  44)  (  40->  46) 
 (  41->  39)  (  42->  38)  (  43->  37)  (  44->  48)  (  45->  47) 
 (  46->  43)  (  47->  42)  (  48->  41) 

 ptrans:     0.3333333     0.8333333     0.0000000
 rotmap:
 (   1->   9)  (   2->   8)  (   3->   7)  (   4->   3)  (   5->   2) 
 (   6->   1)  (   7->  12)  (   8->  11)  (   9->  10)  (  10->   6) 
 (  11->   5)  (  12->   4)  (  13->  21)  (  14->  20)  (  15->  19) 
 (  16->  15)  (  17->  14)  (  18->  13)  (  19->  24)  (  20->  23) 
 (  21->  22)  (  22->  18)  (  23->  17)  (  24->  16)  (  25->  33) 
 (  26->  32)  (  27->  31)  (  28->  27)  (  29->  26)  (  30->  25) 
 (  31->  36)  (  32->  35)  (  33->  34)  (  34->  30)  (  35->  29) 
 (  36->  28)  (  37->  45)  (  38->  44)  (  39->  43)  (  40->  39) 
 (  41->  38)  (  42->  37)  (  43->  48)  (  44->  47)  (  45->  46) 
 (  46->  42)  (  47->  41)  (  48->  40) 

 ptrans:     0.1666667     0.6666667     0.0000000
 rotmap:
 (   1->   8)  (   2->   7)  (   3->   6)  (   4->   2)  (   5->   1) 
 (   6->  12)  (   7->  11)  (   8->  10)  (   9->   3)  (  10->   5) 
 (  11->   4)  (  12->   9)  (  13->  19)  (  14->  24)  (  15->  14) 
 (  16->  13)  (  17->  18)  (  18->  20)  (  19->  22)  (  20->  21) 
 (  21->  17)  (  22->  16)  (  23->  15)  (  24->  23)  (  25->  31) 
 (  26->  27)  (  27->  35)  (  28->  25)  (  29->  33)  (  30->  29) 
 (  31->  34)  (  32->  30)  (  33->  32)  (  34->  28)  (  35->  36) 
 (  36->  26)  (  37->  44)  (  38->  43)  (  39->  42)  (  40->  38) 
 (  41->  37)  (  42->  48)  (  43->  47)  (  44->  46)  (  45->  39) 
 (  46->  41)  (  47->  40)  (  48->  45) 

 ptrans:     0.0000000     0.5000000     0.0000000
 rotmap:
 (   1->   7)  (   2->   6)  (   3->   5)  (   4->   1)  (   5->  12) 
 (   6->  11)  (   7->  10)  (   8->   3)  (   9->   2)  (  10->   4) 
 (  11->   9)  (  12->   8)  (  13->  14)  (  14->  22)  (  15->  18) 
 (  16->  20)  (  17->  16)  (  18->  24)  (  19->  17)  (  20->  19) 
 (  21->  15)  (  22->  23)  (  23->  13)  (  24->  21)  (  25->  35) 
 (  26->  25)  (  27->  30)  (  28->  29)  (  29->  31)  (  30->  36) 
 (  31->  32)  (  32->  28)  (  33->  27)  (  34->  26)  (  35->  34) 
 (  36->  33)  (  37->  43)  (  38->  42)  (  39->  41)  (  40->  37) 
 (  41->  48)  (  42->  47)  (  43->  46)  (  44->  39)  (  45->  38) 
 (  46->  40)  (  47->  45)  (  48->  44) 


 irot  :   6
 --------------------------------------------------------------------
 isymop:   1   1   0
           0  -1   0
           0   0   1

 gtrans:     0.0000000     0.0000000     0.0000000

 ptrans:     0.0000000     0.0000000     0.0000000
 rotmap:
 (   1->   1)  (   2->   9)  (   3->  11)  (   4->   4)  (   5->  12) 
 (   6->   8)  (   7->  10)  (   8->   6)  (   9->   2)  (  10->   7) 
 (  11->   3)  (  12->   5)  (  13->  13)  (  14->  21)  (  15->  23) 
 (  16->  16)  (  17->  24)  (  18->  20)  (  19->  22)  (  20->  18) 
 (  21->  14)  (  22->  19)  (  23->  15)  (  24->  17)  (  25->  33) 
 (  26->  26)  (  27->  34)  (  28->  36)  (  29->  29)  (  30->  31) 
 (  31->  30)  (  32->  35)  (  33->  25)  (  34->  27)  (  35->  32) 
 (  36->  28)  (  37->  37)  (  38->  45)  (  39->  47)  (  40->  40) 
 (  41->  48)  (  42->  44)  (  43->  46)  (  44->  42)  (  45->  38) 
 (  46->  43)  (  47->  39)  (  48->  41) 

 ptrans:     0.8333333     0.8333333     0.0000000
 rotmap:
 (   1->  12)  (   2->   8)  (   3->  10)  (   4->   9)  (   5->  11) 
 (   6->   7)  (   7->   3)  (   8->   5)  (   9->   1)  (  10->   6) 
 (  11->   2)  (  12->   4)  (  13->  20)  (  14->  19)  (  15->  21) 
 (  16->  23)  (  17->  22)  (  18->  24)  (  19->  17)  (  20->  16) 
 (  21->  18)  (  22->  14)  (  23->  13)  (  24->  15)  (  25->  31) 
 (  26->  33)  (  27->  32)  (  28->  34)  (  29->  36)  (  30->  35) 
 (  31->  28)  (  32->  30)  (  33->  29)  (  34->  25)  (  35->  27) 
 (  36->  26)  (  37->  48)  (  38->  44)  (  39->  46)  (  40->  45) 
 (  41->  47)  (  42->  43)  (  43->  39)  (  44->  41)  (  45->  37) 
 (  46->  42)  (  47->  38)  (  48->  40) 

 ptrans:     0.6666667     0.6666667     0.0000000
 rotmap:
 (   1->  11)  (   2->   7)  (   3->   3)  (   4->   8)  (   5->  10) 
 (   6->   6)  (   7->   2)  (   8->   4)  (   9->  12)  (  10->   5) 
 (  11->   1)  (  12->   9)  (  13->  24)  (  14->  14)  (  15->  19) 
 (  16->  21)  (  17->  17)  (  18->  22)  (  19->  15)  (  20->  23) 
 (  21->  16)  (  22->  18)  (  23->  20)  (  24->  13)  (  25->  35) 
 (  26->  31)  (  27->  27)  (  28->  32)  (  29->  34)  (  30->  30) 
 (  31->  26)  (  32->  28)  (  33->  36)  (  34->  29)  (  35->  25) 
 (  36->  33)  (  37->  47)  (  38->  43)  (  39->  39)  (  40->  44) 
 (  41->  46)  (  42->  42)  (  43->  38)  (  44->  40)  (  45->  48) 
 (  46->  41)  (  47->  37)  (  48->  45) 

 ptrans:     0.5000000     0.5000000     0.0000000
 rotmap:
 (   1->  10)  (   2->   6)  (   3->   2)  (   4->   7)  (   5->   3) 
 (   6->   5)  (   7->   1)  (   8->   9)  (   9->  11)  (  10->   4) 
 (  11->  12)  (  12->   8)  (  13->  22)  (  14->  18)  (  15->  14) 
 (  16->  19)  (  17->  15)  (  18->  17)  (  19->  13)  (  20->  21) 
 (  21->  23)  (  22->  16)  (  23->  24)  (  24->  20)  (  25->  30) 
 (  26->  35)  (  27->  25)  (  28->  27)  (  29->  32)  (  30->  28) 
 (  31->  33)  (  32->  26)  (  33->  34)  (  34->  36)  (  35->  29) 
 (  36->  31)  (  37->  46)  (  38->  42)  (  39->  38)  (  40->  43) 
 (  41->  39)  (  42->  41)  (  43->  37)  (  44->  45)  (  45->  47) 
 (  46->  40)  (  47->  48)  (  48->  44) 

 ptrans:     0.3333333     0.3333333     0.0000000
 rotmap:
 (   1->   3)  (   2->   5)  (   3->   1)  (   4->   6)  (   5->   2) 
 (   6->   4)  (   7->  12)  (   8->   8)  (   9->  10)  (  10->   9) 
 (  11->  11)  (  12->   7)  (  13->  17)  (  14->  16)  (  15->  18) 
 (  16->  14)  (  17->  13)  (  18->  15)  (  19->  20)  (  20->  19) 
 (  21->  21)  (  22->  23)  (  23->  22)  (  24->  24)  (  25->  28) 
 (  26->  30)  (  27->  29)  (  28->  25)  (  29->  27)  (  30->  26) 
 (  31->  31)  (  32->  33)  (  33->  32)  (  34->  34)  (  35->  36) 
 (  36->  35)  (  37->  39)  (  38->  41)  (  39->  37)  (  40->  42) 
 (  41->  38)  (  42->  40)  (  43->  48)  (  44->  44)  (  45->  46) 
 (  46->  45)  (  47->  47)  (  48->  43) 

 ptrans:     0.1666667     0.1666667     0.0000000
 rotmap:
 (   1->   2)  (   2->   4)  (   3->  12)  (   4->   5)  (   5->   1) 
 (   6->   9)  (   7->  11)  (   8->   7)  (   9->   3)  (  10->   8) 
 (  11->  10)  (  12->   6)  (  13->  15)  (  14->  23)  (  15->  16) 
 (  16->  18)  (  17->  20)  (  18->  13)  (  19->  24)  (  20->  14) 
 (  21->  19)  (  22->  21)  (  23->  17)  (  24->  22)  (  25->  26) 
 (  26->  28)  (  27->  36)  (  28->  29)  (  29->  25)  (  30->  33) 
 (  31->  35)  (  32->  31)  (  33->  27)  (  34->  32)  (  35->  34) 
 (  36->  30)  (  37->  38)  (  38->  40)  (  39->  48)  (  40->  41) 
 (  41->  37)  (  42->  45)  (  43->  47)  (  44->  43)  (  45->  39) 
 (  46->  44)  (  47->  46)  (  48->  42) 

 ptrans:     0.8333333     0.3333333     0.0000000
 rotmap:
 (   1->   6)  (   2->   2)  (   3->   4)  (   4->   3)  (   5->   5) 
 (   6->   1)  (   7->   9)  (   8->  11)  (   9->   7)  (  10->  12) 
 (  11->   8)  (  12->  10)  (  13->  14)  (  14->  13)  (  15->  15) 
 (  16->  17)  (  17->  16)  (  18->  18)  (  19->  23)  (  20->  22) 
 (  21->  24)  (  22->  20)  (  23->  19)  (  24->  21)  (  25->  25) 
 (  26->  27)  (  27->  26)  (  28->  28)  (  29->  30)  (  30->  29) 
 (  31->  34)  (  32->  36)  (  33->  35)  (  34->  31)  (  35->  33) 
 (  36->  32)  (  37->  42)  (  38->  38)  (  39->  40)  (  40->  39) 
 (  41->  41)  (  42->  37)  (  43->  45)  (  44->  47)  (  45->  43) 
 (  46->  48)  (  47->  44)  (  48->  46) 

 ptrans:     0.6666667     0.1666667     0.0000000
 rotmap:
 (   1->   5)  (   2->   1)  (   3->   9)  (   4->   2)  (   5->   4) 
 (   6->  12)  (   7->   8)  (   8->  10)  (   9->   6)  (  10->  11) 
 (  11->   7)  (  12->   3)  (  13->  18)  (  14->  20)  (  15->  13) 
 (  16->  15)  (  17->  23)  (  18->  16)  (  19->  21)  (  20->  17) 
 (  21->  22)  (  22->  24)  (  23->  14)  (  24->  19)  (  25->  29) 
 (  26->  25)  (  27->  33)  (  28->  26)  (  29->  28)  (  30->  36) 
 (  31->  32)  (  32->  34)  (  33->  30)  (  34->  35)  (  35->  31) 
 (  36->  27)  (  37->  41)  (  38->  37)  (  39->  45)  (  40->  38) 
 (  41->  40)  (  42->  48)  (  43->  44)  (  44->  46)  (  45->  42) 
 (  46->  47)  (  47->  43)  (  48->  39) 

 ptrans:     0.5000000     0.0000000     0.0000000
 rotmap:
 (   1->   4)  (   2->  12)  (   3->   8)  (   4->   1)  (   5->   9) 
 (   6->  11)  (   7->   7)  (   8->   3)  (   9->   5)  (  10->  10) 
 (  11->   6)  (  12->   2)  (  13->  16)  (  14->  24)  (  15->  20) 
 (  16->  13)  (  17->  21)  (  18->  23)  (  19->  19)  (  20->  15) 
 (  21->  17)  (  22->  22)  (  23->  18)  (  24->  14)  (  25->  36) 
 (  26->  29)  (  27->  31)  (  28->  33)  (  29->  26)  (  30->  34) 
 (  31->  27)  (  32->  32)  (  33->  28)  (  34->  30)  (  35->  35) 
 (  36->  25)  (  37->  40)  (  38->  48)  (  39->  44)  (  40->  37) 
 (  41->  45)  (  42->  47)  (  43->  43)  (  44->  39)  (  45->  41) 
 (  46->  46)  (  47->  42)  (  48->  38) 

 ptrans:     0.3333333     0.8333333     0.0000000
 rotmap:
 (   1->   9)  (   2->  11)  (   3->   7)  (   4->  12)  (   5->   8) 
 (   6->  10)  (   7->   6)  (   8->   2)  (   9->   4)  (  10->   3) 
 (  11->   5)  (  12->   1)  (  13->  23)  (  14->  22)  (  15->  24) 
 (  16->  20)  (  17->  19)  (  18->  21)  (  19->  14)  (  20->  13) 
 (  21->  15)  (  22->  17)  (  23->  16)  (  24->  18)  (  25->  34) 
 (  26->  36)  (  27->  35)  (  28->  31)  (  29->  33)  (  30->  32) 
 (  31->  25)  (  32->  27)  (  33->  26)  (  34->  28)  (  35->  30) 
 (  36->  29)  (  37->  45)  (  38->  47)  (  39->  43)  (  40->  48) 
 (  41->  44)  (  42->  46)  (  43->  42)  (  44->  38)  (  45->  40) 
 (  46->  39)  (  47->  41)  (  48->  37) 

 ptrans:     0.1666667     0.6666667     0.0000000
 rotmap:
 (   1->   8)  (   2->  10)  (   3->   6)  (   4->  11)  (   5->   7) 
 (   6->   3)  (   7->   5)  (   8->   1)  (   9->   9)  (  10->   2) 
 (  11->   4)  (  12->  12)  (  13->  21)  (  14->  17)  (  15->  22) 
 (  16->  24)  (  17->  14)  (  18->  19)  (  19->  18)  (  20->  20) 
 (  21->  13)  (  22->  15)  (  23->  23)  (  24->  16)  (  25->  32) 
 (  26->  34)  (  27->  30)  (  28->  35)  (  29->  31)  (  30->  27) 
 (  31->  29)  (  32->  25)  (  33->  33)  (  34->  26)  (  35->  28) 
 (  36->  36)  (  37->  44)  (  38->  46)  (  39->  42)  (  40->  47) 
 (  41->  43)  (  42->  39)  (  43->  41)  (  44->  37)  (  45->  45) 
 (  46->  38)  (  47->  40)  (  48->  48) 

 ptrans:     0.0000000     0.5000000     0.0000000
 rotmap:
 (   1->   7)  (   2->   3)  (   3->   5)  (   4->  10)  (   5->   6) 
 (   6->   2)  (   7->   4)  (   8->  12)  (   9->   8)  (  10->   1) 
 (  11->   9)  (  12->  11)  (  13->  19)  (  14->  15)  (  15->  17) 
 (  16->  22)  (  17->  18)  (  18->  14)  (  19->  16)  (  20->  24) 
 (  21->  20)  (  22->  13)  (  23->  21)  (  24->  23)  (  25->  27) 
 (  26->  32)  (  27->  28)  (  28->  30)  (  29->  35)  (  30->  25) 
 (  31->  36)  (  32->  29)  (  33->  31)  (  34->  33)  (  35->  26) 
 (  36->  34)  (  37->  43)  (  38->  39)  (  39->  41)  (  40->  46) 
 (  41->  42)  (  42->  38)  (  43->  40)  (  44->  48)  (  45->  44) 
 (  46->  37)  (  47->  45)  (  48->  47) 
 
 
 KPOINTS: K-POINTS                                

Automatic generation of k-mesh.
Space group operators:
 irot       det(A)        alpha          n_x          n_y          n_z        tau_x        tau_y        tau_z
    1     1.000000     0.000000     1.000000     0.000000     0.000000     0.000000     0.000000     0.000000
    2     1.000000   120.000000     0.000000     0.000000     1.000000     0.000000     0.000000     0.000000
    3     1.000000   120.000000     0.000000     0.000000    -1.000000     0.000000     0.000000     0.000000
    4    -1.000000   180.000000     0.866025    -0.500000     0.000000     0.000000     0.000000     0.000000
    5    -1.000000   180.000000     0.866025     0.500000     0.000000     0.000000     0.000000     0.000000
    6    -1.000000   179.999999     0.000000     1.000000     0.000000     0.000000     0.000000     0.000000
 
 Subroutine IBZKPT returns following result:
 ===========================================
 
 Found      3 irreducible k-points:
 
 Following reciprocal coordinates:
            Coordinates               Weight
  0.000000  0.000000  0.000000      1.000000
  0.333333  0.000000  0.000000      6.000000
 -0.333333  0.333333  0.000000      2.000000
 
 Following cartesian coordinates:
            Coordinates               Weight
  0.000000  0.000000  0.000000      1.000000
  0.034295 -0.019800  0.000000      6.000000
 -0.034295  0.059400  0.000000      2.000000
 


--------------------------------------------------------------------------------------------------------




 Dimension of arrays:
   k-points           NKPTS =      3   k-points in BZ     NKDIM =      3   number of bands    NBANDS=    264
   number of dos      NEDOS =    301   number of ions     NIONS =     48
   non local maximal  LDIM  =      6   non local SUM 2l+1 LMDIM =     18
   total plane-waves  NPLWV = 270000
   max r-space proj   IRMAX =   2222   max aug-charges    IRDMAX=  10192
   dimension x,y,z NGX =    50 NGY =   50 NGZ =  108
   dimension x,y,z NGXF=   100 NGYF=  100 NGZF=  216
   support grid    NGXF=   100 NGYF=  100 NGZF=  216
   ions per type =              48
 NGX,Y,Z   is equivalent  to a cutoff of   8.55,  8.55,  8.98 a.u.
 NGXF,Y,Z  is equivalent  to a cutoff of  17.10, 17.10, 17.95 a.u.


 I would recommend the setting:
   dimension x,y,z NGX =    50 NGY =   50 NGZ =  104
 SYSTEM =  Pt_C_H_O_relax                          
 POSCAR =  Pt                                      

 Startparameter for this run:
   NWRITE =      0    write-flag & timer
   PREC   = normal    normal or accurate (medium, high low for compatibility)
   ISTART =      0    job   : 0-new  1-cont  2-samecut
   ICHARG =      2    charge: 1-file 2-atom 10-const
   ISPIN  =      1    spin polarized calculation?
   LNONCOLLINEAR =      F non collinear calculations
   LSORBIT =      F    spin-orbit coupling
   INIWAV =      1    electr: 0-lowe 1-rand  2-diag
   LASPH  =      F    aspherical Exc in radial PAW
   METAGGA=      F    non-selfconsistent MetaGGA calc.

 Electronic Relaxation 1
   ENCUT  =  450.0 eV  33.07 Ry    5.75 a.u.  16.81 16.81 34.59*2*pi/ulx,y,z
   ENINI  =  450.0     initial cutoff
   ENAUG  =  359.0 eV  augmentation charge cutoff
   NELM   =    100;   NELMIN=  5; NELMDL= -7     # of ELM steps 
   EDIFF  = 0.1E-04   stopping-criterion for ELM
   LREAL  =      T    real-space projection
   NLSPLINE    = F    spline interpolate recip. space projectors
   LCOMPAT=      F    compatible to vasp.4.4
   GGA_COMPAT  = T    GGA compatible to vasp.4.4-vasp.4.6
   LMAXPAW     = -100 max onsite density
   LMAXMIX     =    2 max onsite mixed and CHGCAR
   VOSKOWN=      0    Vosko Wilk Nusair interpolation
   ROPT   =   -0.00050
 Ionic relaxation
   EDIFFG = -.1E-01   stopping-criterion for IOM
   NSW    =    500    number of steps for IOM
   NBLOCK =      1;   KBLOCK =    500    inner block; outer block 
   IBRION =      1    ionic relax: 0-MD 1-quasi-New 2-CG
   NFREE  =      3    steps in history (QN), initial steepest desc. (CG)
   ISIF   =      2    stress and relaxation
   IWAVPR =     11    prediction:  0-non 1-charg 2-wave 3-comb
   ISYM   =      2    0-nonsym 1-usesym 2-fastsym
   LCORR  =      T    Harris-Foulkes like correction to forces

   POTIM  = 0.1500    time-step for ionic-motion
   TEIN   =    0.0    initial temperature
   TEBEG  =    0.0;   TEEND  =   0.0 temperature during run
   SMASS  =  -3.00    Nose mass-parameter (am)
   estimated Nose-frequenzy (Omega)   =  0.10E-29 period in steps =****** mass=  -0.216E-26a.u.
   SCALEE = 1.0000    scale energy and forces
   NPACO  =    256;   APACO  = 16.0  distance and # of slots for P.C.
   PSTRESS=    0.0 pullay stress

  Mass of Ions in am
   POMASS = 195.08
  Ionic Valenz
   ZVAL   =  10.00
  Atomic Wigner-Seitz radii
   RWIGS  =  -1.00
  virtual crystal weights 
   VCA    =   1.00
   NELECT =     480.0000    total number of electrons
   NUPDOWN=      -1.0000    fix difference up-down

 DOS related values:
   EMIN   =  10.00;   EMAX   =-10.00  energy-range for DOS
   EFERMI =   0.00
   ISMEAR =     0;   SIGMA  =   0.03  broadening in eV -4-tet -1-fermi 0-gaus

 Electronic relaxation 2 (details)
   IALGO  =     68    algorithm
   LDIAG  =      T    sub-space diagonalisation (order eigenvalues)
   LSUBROT=      T    optimize rotation matrix (better conditioning)
   TURBO    =      0    0=normal 1=particle mesh
   IRESTART =      0    0=no restart 2=restart with 2 vectors
   NREBOOT  =      0    no. of reboots
   NMIN     =      0    reboot dimension
   EREF     =   0.00    reference energy to select bands
   IMIX   =      4    mixing-type and parameters
     AMIX     =   0.40;   BMIX     =  1.00
     AMIX_MAG =   1.60;   BMIX_MAG =  1.00
     AMIN     =   0.10
     WC   =   100.;   INIMIX=   1;  MIXPRE=   1;  MAXMIX= -45

 Intra band minimization:
   WEIMIN = 0.0010     energy-eigenvalue tresh-hold
   EBREAK =  0.95E-08  absolut break condition
   DEPER  =   0.30     relativ break condition  

   TIME   =   0.40     timestep for ELM

  volume/ion in A,a.u.               =      34.09       230.05
  Fermi-wavevector in a.u.,A,eV,Ry     =   1.087762  2.055572 16.098775  1.183227
  Thomas-Fermi vector in A             =   2.223929
 
 Write flags
   LWAVE  =      F    write WAVECAR
   LCHARG =      F    write CHGCAR
   LVTOT  =      F    write LOCPOT, total local potential
   LVHAR  =      F    write LOCPOT, Hartree potential only
   LELF   =      F    write electronic localiz. function (ELF)
   LORBIT =      0    0 simple, 1 ext, 2 COOP (PROOUT)


 Dipole corrections
   LMONO  =      F    monopole corrections only (constant potential shift)
   LDIPOL =      T    correct potential (dipole corrections)
   IDIPOL =      3    1-x, 2-y, 3-z, 4-all directions 
   EPSILON=  1.0000000 bulk dielectric constant

 Exchange correlation treatment:
   GGA     =    PE    GGA type
   LEXCH   =     8    internal setting for exchange type
   VOSKOWN=      0    Vosko Wilk Nusair interpolation
   LHFCALC =     F    Hartree Fock is set to
   LHFONE  =     F    Hartree Fock one center treatment
   AEXX    =    0.0000 exact exchange contribution

 Linear response parameters
   LEPSILON=     F    determine dielectric tensor
   LRPA    =     F    only Hartree local field effects (RPA)
   LNABLA  =     F    use nabla operator in PAW spheres
   LVEL    =     F    velocity operator in full k-point grid
   LINTERFAST=   F  fast interpolation
   KINTER  =     0    interpolate to denser k-point grid
   CSHIFT  =0.1000    complex shift for real part using Kramers Kronig
   OMEGAMAX=  -1.0    maximum frequency
   DEG_THRESHOLD= 0.2000000E-02 threshold for treating states as degnerate
   RTIME   =    0.100 relaxation time in fs

 Orbital magnetization related:
   ORBITALMAG=     F  switch on orbital magnetization
   LCHIMAG   =     F  perturbation theory with respect to B field
   DQ        =  0.001000  dq finite difference perturbation B field



--------------------------------------------------------------------------------------------------------


 quasi-Newton-method for relaxation of ions
   using selective dynamics as specified on POSCAR
 charge density and potential will be updated during run
 non-spin polarized calculation
 RMM-DIIS sequential band-by-band and
  variant of blocked Davidson during initial phase
 perform sub-space diagonalisation
    before iterative eigenvector-optimisation
 modified Broyden-mixing scheme, WC =      100.0
 initial mixing is a Kerker type mixing with AMIX =  0.4000 and BMIX =      1.0000
 Hartree-type preconditioning will be used
 using additional bands           24
 real space projection scheme for non local part
 use partial core corrections
 calculate Harris-corrections to forces 
   (improved forces if not selfconsistent)
 use gradient corrections 
 use of overlap-Matrix (Vanderbilt PP)
 Gauss-broadening in eV      SIGMA  =   0.03


--------------------------------------------------------------------------------------------------------


  energy-cutoff  :      450.00
  volume of cell :     1636.30
      direct lattice vectors                 reciprocal lattice vectors
     9.719671949  0.000000000  0.000000000     0.102884131 -0.059400181  0.000000000
     4.859835975  8.417482825  0.000000000     0.000000000  0.118800361  0.000000000
     0.000000000  0.000000000 20.000000000     0.000000000  0.000000000  0.050000000

  length of vectors
     9.719671949  9.719671949 20.000000000     0.118800361  0.118800361  0.050000000


 
 k-points in units of 2pi/SCALE and weight: K-POINTS                                
   0.00000000  0.00000000  0.00000000       0.111
   0.03429471 -0.01980006  0.00000000       0.667
  -0.03429471  0.05940018  0.00000000       0.222
 
 k-points in reciprocal lattice and weights: K-POINTS                                
   0.00000000  0.00000000  0.00000000       0.111
   0.33333333  0.00000000  0.00000000       0.667
  -0.33333333  0.33333333  0.00000000       0.222
 
 position of ions in fractional coordinates (direct lattice) 
   0.00000000  0.00000000  0.00000000
   0.16666667  0.16666667  0.00000000
   0.33333333  0.33333333  0.00000000
   0.50000000  0.00000000  0.00000000
   0.66666667  0.16666667  0.00000000
   0.83333333  0.33333333  0.00000000
   0.00000000  0.50000000  0.00000000
   0.16666667  0.66666667  0.00000000
   0.33333333  0.83333333  0.00000000
   0.50000000  0.50000000  0.00000000
   0.66666667  0.66666667  0.00000000
   0.83333333  0.83333333  0.00000000
   0.16666667  0.00000000  0.11454743
   0.00000000  0.33333333  0.11454743
   0.33333333  0.16666667  0.11454743
   0.66666667  0.00000000  0.11454743
   0.50000000  0.33333333  0.11454743
   0.83333333  0.16666667  0.11454743
   0.16666667  0.50000000  0.11454743
   0.00000000  0.83333333  0.11454743
   0.33333333  0.66666667  0.11454743
   0.66666667  0.50000000  0.11454743
   0.50000000  0.83333333  0.11454743
   0.83333333  0.66666667  0.11454743
   0.00000000  0.16666667  0.22808003
   0.33333333  0.00000000  0.22808003
   0.16666667  0.33333333  0.22808003
   0.50000000  0.16666667  0.22808003
   0.83333333  0.00000000  0.22808003
[...]
    MIXING:  cpu time    0.01: real time    0.01

  Number of pair interactions contributing to vdW energy:  189108
  Estimated vdW energy (eV):  -5.04346
    FORVDW:  cpu time    0.05: real time    0.05

  FORCE on cell =-STRESS in cart. coord.  units (eV):
  Direction    XX          YY          ZZ          XY          YZ          ZX
  --------------------------------------------------------------------------------------
  Alpha Z  1338.46964  1338.46964  1338.46964
  Ewald  118514.55954118514.55954************     0.00000     0.00000     0.00000
  Hartree127235.50274127235.50274************     0.00000     0.00000     0.00000
  E(xc)   -2121.64320 -2121.64316 -2136.18861    -0.00004     0.00000     0.00000
  Local  ************************260996.78336     0.00232     0.00009    -0.00005
  n-local   218.50765   193.12355   178.52788   -21.98487    -3.93743    -2.27008
  augment  2503.33380  2503.33617  2581.16421    -0.00205    -0.00009     0.00005
  Kinetic  6913.56218  6900.27772  7115.14903   -11.50479     4.31758     2.49286
  Fock        0.00000     0.00000     0.00000     0.00000     0.00000     0.00000
  -------------------------------------------------------------------------------------
  Total     -58.76097   -58.76097    -0.37844     0.00000     0.00000     0.00000
  in kB     -57.53547   -57.53547    -0.37055     0.00000     0.00000     0.00000
  external pressure =      -38.48 kB  Pullay stress =        0.00 kB



--------------------------------------------------------------------------------------------------------



  FREE ENERGIE OF THE ION-ELECTRON SYSTEM (eV)
  ---------------------------------------------------
  free  energy   TOTEN  =      -282.79559226 eV

  energy  without entropy=     -282.71239236  energy(sigma->0) =     -282.75399231
 
 d Force = 0.2628470E-02[ 0.195E-02, 0.331E-02]  d Energy = 0.2610674E-02 0.178E-04
 d Force =-0.2221777E+03[-0.222E+03,-0.222E+03]  d Ewald  =-0.2221777E+03 0.758E-05


--------------------------------------------------------------------------------------------------------


    POTLOK:  cpu time    0.41: real time    0.41


--------------------------------------------------------------------------------------------------------


 Quasi-Newton relaxation of ions (Broydens 2nd method)
  g(Force)  = 0.651E-04   g(Stress)= 0.000E+00

 retain information from N=  2 steps
 eigenvalues of (default step * inverse Hessian matrix)
  average eigenvalue of G=  29.0962
 eigenvalue spectrum of G is 29.0962 29.0962


--------------------------------------------------------------------------------------------------------


    WAVPRE:  cpu time    0.07: real time    0.07
 FEWALD executed in parallel
    FEWALD:  cpu time    0.00: real time    0.00
    ORTHCH:  cpu time    3.11: real time    3.11
     LOOP+:  cpu time  240.17: real time  241.44


----------------------------------------- Iteration    5(   1)  ---------------------------------------


    POTLOK:  cpu time    0.38: real time    0.38
    SETDIJ:  cpu time    0.02: real time    0.02
     EDDAV:  cpu time   27.16: real time   27.39
       DOS:  cpu time    0.00: real time    0.00
    CHARGE:  cpu time    1.97: real time    1.97
    MIXING:  cpu time    0.01: real time    0.01
    --------------------------------------------
      LOOP:  cpu time   29.55: real time   29.78

 eigenvalue-minimisations  :  1584
 total energy-change (2. order) : 0.1198700E-01  (-0.6397035E+00)
 number of electron     480.0000028 magnetization 
 augmentation part      149.1954368 magnetization 

 DIPCOR: dipole corrections for dipol
 direction  3 min pos   146,
 dipolmoment           0.000000      0.000000      0.001907 electrons x Angstroem
 Tr[quadrupol]     -7944.157187

 energy correction for charged system         0.000000 eV
 dipol+quadrupol energy correction            0.000000 eV
 added-field ion interaction          0.000414 eV  (added to PSCEN)


  free energy =  -0.277740148017E+03  energy without entropy=  -0.277657090713E+03


--------------------------------------------------------------------------------------------------------




----------------------------------------- Iteration    5(   2)  ---------------------------------------


    POTLOK:  cpu time    0.36: real time    0.37
    SETDIJ:  cpu time    0.02: real time    0.03
    EDDIAG:  cpu time    5.11: real time    5.16
  RMM-DIIS:  cpu time   14.86: real time   15.02
    ORTHCH:  cpu time    1.01: real time    1.02
       DOS:  cpu time    0.00: real time    0.00
    CHARGE:  cpu time    1.87: real time    1.89
    MIXING:  cpu time    0.01: real time    0.01
    --------------------------------------------
      LOOP:  cpu time   23.25: real time   23.51

 eigenvalue-minimisations  :  1598
 total energy-change (2. order) :-0.2639431E-01  (-0.8663454E-02)
 number of electron     480.0000028 magnetization 
 augmentation part      149.1991497 magnetization 

 DIPCOR: dipole corrections for dipol
 direction  3 min pos   146,
 dipolmoment           0.000000      0.000000     -0.030195 electrons x Angstroem
 Tr[quadrupol]     -7944.176186

 energy correction for charged system         0.000000 eV
 dipol+quadrupol energy correction           -0.000050 eV
 added-field ion interaction         -0.006553 eV  (added to PSCEN)


 eigenvalues of (default mixing * dielectric matrix)
  average eigenvalue GAMMA=   0.0912
  0.0912

  free energy =  -0.277766542325E+03  energy without entropy=  -0.277682972593E+03


--------------------------------------------------------------------------------------------------------




----------------------------------------- Iteration    5(   3)  ---------------------------------------


    POTLOK:  cpu time    0.36: real time    0.36
    SETDIJ:  cpu time    0.02: real time    0.03
    EDDIAG:  cpu time    5.11: real time    5.29
  RMM-DIIS:  cpu time   15.64: real time   15.70
    ORTHCH:  cpu time    1.02: real time    1.03
       DOS:  cpu time    0.00: real time    0.00
    CHARGE:  cpu time    1.87: real time    1.87
    MIXING:  cpu time    0.01: real time    0.01
    --------------------------------------------
      LOOP:  cpu time   24.04: real time   24.29

 eigenvalue-minimisations  :  1728
 total energy-change (2. order) : 0.1864895E-01  (-0.9050337E-03)
 number of electron     480.0000028 magnetization 
 augmentation part      149.1990532 magnetization 

 DIPCOR: dipole corrections for dipol
 direction  3 min pos   149,
 dipolmoment           0.000000      0.000000      0.002264 electrons x Angstroem
 Tr[quadrupol]     -7944.174958

 energy correction for charged system         0.000000 eV
 dipol+quadrupol energy correction            0.000000 eV
 added-field ion interaction          0.033880 eV  (added to PSCEN)


 eigenvalues of (default mixing * dielectric matrix)
  average eigenvalue GAMMA=   0.4908
  0.9063  0.0753

  free energy =  -0.277747893372E+03  energy without entropy=  -0.277664875730E+03


--------------------------------------------------------------------------------------------------------




----------------------------------------- Iteration    5(   4)  ---------------------------------------


    POTLOK:  cpu time    0.35: real time    0.35
    SETDIJ:  cpu time    0.02: real time    0.02
    EDDIAG:  cpu time    5.15: real time    5.16
  RMM-DIIS:  cpu time   15.26: real time   15.29
    ORTHCH:  cpu time    1.01: real time    1.01
       DOS:  cpu time    0.00: real time    0.00
    CHARGE:  cpu time    1.89: real time    1.89
    MIXING:  cpu time    0.01: real time    0.01
    --------------------------------------------
      LOOP:  cpu time   23.70: real time   23.75

 eigenvalue-minimisations  :  1645
 total energy-change (2. order) : 0.4488979E-03  (-0.3195141E-03)
 number of electron     480.0000028 magnetization 
 augmentation part      149.2006955 magnetization 

 DIPCOR: dipole corrections for dipol
 direction  3 min pos   148,
 dipolmoment           0.000000      0.000000      0.001230 electrons x Angstroem
 Tr[quadrupol]     -7944.118409

 energy correction for charged system         0.000000 eV
 dipol+quadrupol energy correction            0.000000 eV
 added-field ion interaction          0.012357 eV  (added to PSCEN)


 eigenvalues of (default mixing * dielectric matrix)
  average eigenvalue GAMMA=   0.5062
  1.1768  0.0736  0.2681

  free energy =  -0.277747444474E+03  energy without entropy=  -0.277664862782E+03


--------------------------------------------------------------------------------------------------------




----------------------------------------- Iteration    5(   5)  ---------------------------------------


    POTLOK:  cpu time    0.41: real time    0.43
    SETDIJ:  cpu time    0.02: real time    0.02
    EDDIAG:  cpu time    5.19: real time    5.20
  RMM-DIIS:  cpu time   15.03: real time   15.06
    ORTHCH:  cpu time    1.01: real time    1.01
       DOS:  cpu time    0.00: real time    0.00
    CHARGE:  cpu time    1.91: real time    1.92
    MIXING:  cpu time    0.01: real time    0.01
    --------------------------------------------
      LOOP:  cpu time   23.59: real time   23.68

 eigenvalue-minimisations  :  1614
 total energy-change (2. order) : 0.6458511E-03  (-0.9103524E-04)
 number of electron     480.0000028 magnetization 
 augmentation part      149.2006921 magnetization 

 DIPCOR: dipole corrections for dipol
 direction  3 min pos   147,
 dipolmoment           0.000000      0.000000      0.000588 electrons x Angstroem
 Tr[quadrupol]     -7944.141371

 energy correction for charged system         0.000000 eV
 dipol+quadrupol energy correction            0.000000 eV
 added-field ion interaction          0.003016 eV  (added to PSCEN)


 eigenvalues of (default mixing * dielectric matrix)
  average eigenvalue GAMMA=   0.8436
  2.2059  0.8474  0.0741  0.2469

  free energy =  -0.277746798623E+03  energy without entropy=  -0.277663669784E+03


--------------------------------------------------------------------------------------------------------




----------------------------------------- Iteration    5(   6)  ---------------------------------------


    POTLOK:  cpu time    0.35: real time    0.36
    SETDIJ:  cpu time    0.02: real time    0.02
    EDDIAG:  cpu time    5.15: real time    5.27
  RMM-DIIS:  cpu time   14.76: real time   14.79
    ORTHCH:  cpu time    1.01: real time    1.01
       DOS:  cpu time    0.00: real time    0.00
    CHARGE:  cpu time    1.91: real time    1.92
    MIXING:  cpu time    0.01: real time    0.01
    --------------------------------------------
      LOOP:  cpu time   23.22: real time   23.38

 eigenvalue-minimisations  :  1617
 total energy-change (2. order) :-0.4414737E-03  (-0.1469765E-03)
 number of electron     480.0000028 magnetization 
 augmentation part      149.2003104 magnetization 

 DIPCOR: dipole corrections for dipol
 direction  3 min pos   145,
 dipolmoment           0.000000      0.000000     -0.002963 electrons x Angstroem
 Tr[quadrupol]     -7944.128339

 energy correction for charged system         0.000000 eV
 dipol+quadrupol energy correction            0.000000 eV
 added-field ion interaction          0.013920 eV  (added to PSCEN)


 eigenvalues of (default mixing * dielectric matrix)
  average eigenvalue GAMMA=   0.8129
  2.5858  0.8574  0.0741  0.2736  0.2736

  free energy =  -0.277747240097E+03  energy without entropy=  -0.277664341872E+03


--------------------------------------------------------------------------------------------------------




----------------------------------------- Iteration    5(   7)  ---------------------------------------


    POTLOK:  cpu time    0.36: real time    0.36
    SETDIJ:  cpu time    0.02: real time    0.02
    EDDIAG:  cpu time    5.25: real time    5.26
  RMM-DIIS:  cpu time   14.90: real time   14.93
    ORTHCH:  cpu time    1.02: real time    1.02
       DOS:  cpu time    0.00: real time    0.00
    CHARGE:  cpu time    1.94: real time    1.94
    MIXING:  cpu time    0.01: real time    0.01
    --------------------------------------------
      LOOP:  cpu time   23.50: real time   23.57

 eigenvalue-minimisations  :  1622
 total energy-change (2. order) : 0.4739671E-03  (-0.4408569E-04)
 number of electron     480.0000028 magnetization 
 augmentation part      149.1998856 magnetization 

 DIPCOR: dipole corrections for dipol
 direction  3 min pos   144,
 dipolmoment           0.000000      0.000000     -0.000422 electrons x Angstroem
 Tr[quadrupol]     -7944.142651

 energy correction for charged system         0.000000 eV
 dipol+quadrupol energy correction            0.000000 eV
 added-field ion interaction          0.004055 eV  (added to PSCEN)


 eigenvalues of (default mixing * dielectric matrix)
  average eigenvalue GAMMA=   0.8455
  2.3525  1.0437  1.0437  0.0741  0.3174  0.2413

  free energy =  -0.277746766130E+03  energy without entropy=  -0.277663661649E+03


--------------------------------------------------------------------------------------------------------




----------------------------------------- Iteration    5(   8)  ---------------------------------------


    POTLOK:  cpu time    0.35: real time    0.35
    SETDIJ:  cpu time    0.03: real time    0.03
    EDDIAG:  cpu time    5.16: real time    5.17
  RMM-DIIS:  cpu time   14.78: real time   14.81
    ORTHCH:  cpu time    1.01: real time    1.01
       DOS:  cpu time    0.00: real time    0.00
    CHARGE:  cpu time    1.87: real time    1.88
    MIXING:  cpu time    0.01: real time    0.01
    --------------------------------------------
      LOOP:  cpu time   23.22: real time   23.29

 eigenvalue-minimisations  :  1604
 total energy-change (2. order) : 0.1290392E-03  (-0.2013433E-04)
 number of electron     480.0000028 magnetization 
 augmentation part      149.1996038 magnetization 

 DIPCOR: dipole corrections for dipol
 direction  3 min pos   145,
 dipolmoment           0.000000      0.000000      0.001677 electrons x Angstroem
 Tr[quadrupol]     -7944.146191

 energy correction for charged system         0.000000 eV
 dipol+quadrupol energy correction            0.000000 eV
 added-field ion interaction         -0.007879 eV  (added to PSCEN)


 eigenvalues of (default mixing * dielectric matrix)
  average eigenvalue GAMMA=   0.9161
  2.3492  1.3008  1.3008  0.8267  0.0741  0.2411  0.3201

  free energy =  -0.277746637090E+03  energy without entropy=  -0.277663634317E+03


--------------------------------------------------------------------------------------------------------




----------------------------------------- Iteration    5(   9)  ---------------------------------------


    POTLOK:  cpu time    0.36: real time    0.36
    SETDIJ:  cpu time    0.02: real time    0.03
    EDDIAG:  cpu time    5.18: real time    5.32
  RMM-DIIS:  cpu time    9.00: real time    9.02
    ORTHCH:  cpu time    1.01: real time    1.02
       DOS:  cpu time    0.00: real time    0.00
    --------------------------------------------
      LOOP:  cpu time   15.57: real time   15.75

 eigenvalue-minimisations  :   920
 total energy-change (2. order) : 0.4150636E-05  (-0.2923727E-05)
 number of electron     480.0000028 magnetization 
 augmentation part      149.1996038 magnetization 

 DIPCOR: dipole corrections for dipol
 direction  3 min pos   146,
 dipolmoment           0.000000      0.000000      0.001225 electrons x Angstroem
 Tr[quadrupol]     -7944.149001

 energy correction for charged system         0.000000 eV
 dipol+quadrupol energy correction            0.000000 eV
 added-field ion interaction          0.000266 eV  (added to PSCEN)


  free energy =  -0.277746632940E+03  energy without entropy=  -0.277663614199E+03


--------------------------------------------------------------------------------------------------------




------------------------ aborting loop because EDIFF is reached ----------------------------------------


    CHARGE:  cpu time    1.88: real time    1.88
    FORLOC:  cpu time    0.06: real time    0.06
    FORNL :  cpu time    6.33: real time    6.34
    STRESS:  cpu time   18.71: real time   18.75
    FORCOR:  cpu time    0.39: real time    0.39
    FORHAR:  cpu time    0.15: real time    0.15
    MIXING:  cpu time    0.01: real time    0.01

  Number of pair interactions contributing to vdW energy:  189036
  Estimated vdW energy (eV):  -5.05049
    FORVDW:  cpu time    0.05: real time    0.05

  FORCE on cell =-STRESS in cart. coord.  units (eV):
  Direction    XX          YY          ZZ          XY          YZ          ZX
  --------------------------------------------------------------------------------------
  Alpha Z  1338.46964  1338.46964  1338.46964
  Ewald  118777.22140118777.22140************     0.00000     0.00000     0.00000
  Hartree127494.30719127494.30719************     0.00000     0.00000     0.00000
  E(xc)   -2121.89000 -2121.88996 -2136.38520    -0.00004     0.00000     0.00000
  Local  ************************261523.49241     0.00232     0.00009    -0.00005
  n-local   219.60612   194.26863   181.00912   -21.94490    -3.95998    -2.28312
  augment  2503.53935  2503.54172  2580.28844    -0.00206    -0.00009     0.00005
  Kinetic  6914.62938  6901.47343  7114.21783   -11.39328     4.16228     2.40330
  Fock        0.00000     0.00000     0.00000     0.00000     0.00000     0.00000
  -------------------------------------------------------------------------------------
  Total     -57.78485   -57.78485     1.03853     0.00000     0.00000     0.00000
  in kB     -56.57971   -56.57971     1.01687     0.00000     0.00000     0.00000
  external pressure =      -37.38 kB  Pullay stress =        0.00 kB



--------------------------------------------------------------------------------------------------------



  FREE ENERGIE OF THE ION-ELECTRON SYSTEM (eV)
  ---------------------------------------------------
  free  energy   TOTEN  =      -282.79712138 eV

  energy  without entropy=     -282.71410264  energy(sigma->0) =     -282.75561201
 
 d Force = 0.1166253E-02[ 0.757E-04, 0.226E-02]  d Energy = 0.1529120E-02-0.363E-03
 d Force =-0.2594920E+03[-0.260E+03,-0.259E+03]  d Ewald  =-0.2594921E+03 0.114E-04


--------------------------------------------------------------------------------------------------------


    POTLOK:  cpu time    0.39: real time    0.39


--------------------------------------------------------------------------------------------------------


 Quasi-Newton relaxation of ions (Broydens 2nd method)
  g(Force)  = 0.227E-04   g(Stress)= 0.000E+00

 retain information from N=  1 steps
 eigenvalues of (default step * inverse Hessian matrix)
  average eigenvalue of G=  24.9803
 eigenvalue spectrum of G is 24.9803


--------------------------------------------------------------------------------------------------------


  
 reached required accuracy - stopping structural energy minimisation
     LOOP+:  cpu time  237.68: real time  239.11
    4ORBIT:  cpu time    0.00: real time    0.00

 total amount of memory used by VASP on root node   114792. kBytes
========================================================================

   base      :      30000. kBytes
   nonlr-proj:      17780. kBytes
   fftplans  :       7579. kBytes
   grid      :      20228. kBytes
   one-center:        746. kBytes
   wavefun   :      38459. kBytes
 
  
  
 General timing and accounting informations for this job:
 ========================================================
  
                  Total CPU time used (sec):     1626.276
                            User time (sec):     1608.041
                          System time (sec):       18.235
                         Elapsed time (sec):     1637.592
  
                   Maximum memory used (kb):      345356.
                   Average memory used (kb):           0.
  
                          Minor page faults:      2332999
                          Major page faults:            4
                 Voluntary context switches:         1763
