 vasp.5.4.4.18Apr17-6-g9f103f2a35 (build Jun 30 2017 19:19:18) complex          
  
 executed on         MareNostrum4 date 2022.04.12  10:59:04
 running on   48 total cores
 distrk:  each k-point on   48 cores,    1 groups
 distr:  one band on NCORES_PER_BAND=   1 cores,   48 groups


--------------------------------------------------------------------------------------------------------


 INCAR:
 POTCAR:    PAW_PBE Ag 02Apr2005                  
 POTCAR:    PAW_PBE O 08Apr2002                   
 POTCAR:    PAW_PBE C 08Apr2002                   
 POTCAR:    PAW_PBE N 08Apr2002                   
 POTCAR:    PAW_PBE H 15Jun2001                   

 ----------------------------------------------------------------------------- 
|                                                                             |
|           W    W    AA    RRRRR   N    N  II  N    N   GGGG   !!!           |
|           W    W   A  A   R    R  NN   N  II  NN   N  G    G  !!!           |
|           W    W  A    A  R    R  N N  N  II  N N  N  G       !!!           |
|           W WW W  AAAAAA  RRRRR   N  N N  II  N  N N  G  GGG   !            |
|           WW  WW  A    A  R   R   N   NN  II  N   NN  G    G                |
|           W    W  A    A  R    R  N    N  II  N    N   GGGG   !!!           |
|                                                                             |
|      For optimal performance we recommend to set                            |
|        NCORE= 4 - approx SQRT( number of cores)                             |
|      NCORE specifies how many cores store one orbital (NPAR=cpu/NCORE).     |
|      This setting can  greatly improve the performance of VASP for DFT.     |
|      The default,   NCORE=1            might be grossly inefficient         |
|      on modern multi-core architectures or massively parallel machines.     |
|      Do your own testing !!!!                                               |
|      Unfortunately you need to use the default for GW and RPA calculations. |
|      (for HF NCORE is supported but not extensively tested yet)             |
|                                                                             |
 ----------------------------------------------------------------------------- 

 POTCAR:    PAW_PBE Ag 02Apr2005                  
  local pseudopotential read in
  partial core-charges read in
  partial kinetic energy density read in
  atomic valenz-charges read in
  non local Contribution for L=           2  read in
    real space projection operators read in
  non local Contribution for L=           2  read in
    real space projection operators read in
  non local Contribution for L=           0  read in
    real space projection operators read in
  non local Contribution for L=           0  read in
    real space projection operators read in
  non local Contribution for L=           1  read in
    real space projection operators read in
  non local Contribution for L=           1  read in
    real space projection operators read in
    PAW grid and wavefunctions read in
 
   number of l-projection  operators is LMAX  =           6
   number of lm-projection operators is LMMAX =          18
 
 POTCAR:    PAW_PBE O 08Apr2002                   
  local pseudopotential read in
  partial core-charges read in
  partial kinetic energy density read in
  kinetic energy density of atom read in
  atomic valenz-charges read in
  non local Contribution for L=           0  read in
    real space projection operators read in
  non local Contribution for L=           0  read in
    real space projection operators read in
  non local Contribution for L=           1  read in
    real space projection operators read in
  non local Contribution for L=           1  read in
    real space projection operators read in
    PAW grid and wavefunctions read in
 
   number of l-projection  operators is LMAX  =           4
   number of lm-projection operators is LMMAX =           8
 
 POTCAR:    PAW_PBE C 08Apr2002                   
  local pseudopotential read in
  partial core-charges read in
  partial kinetic energy density read in
  atomic valenz-charges read in
  non local Contribution for L=           0  read in
    real space projection operators read in
  non local Contribution for L=           0  read in
    real space projection operators read in
  non local Contribution for L=           1  read in
    real space projection operators read in
  non local Contribution for L=           1  read in
    real space projection operators read in
    PAW grid and wavefunctions read in
 
   number of l-projection  operators is LMAX  =           4
   number of lm-projection operators is LMMAX =           8
 
 POTCAR:    PAW_PBE N 08Apr2002                   
  local pseudopotential read in
  partial core-charges read in
  partial kinetic energy density read in
  atomic valenz-charges read in
  non local Contribution for L=           0  read in
    real space projection operators read in
  non local Contribution for L=           0  read in
    real space projection operators read in
  non local Contribution for L=           1  read in
    real space projection operators read in
  non local Contribution for L=           1  read in
    real space projection operators read in
    PAW grid and wavefunctions read in
 
   number of l-projection  operators is LMAX  =           4
   number of lm-projection operators is LMMAX =           8
 
 POTCAR:    PAW_PBE H 15Jun2001                   
  local pseudopotential read in
  atomic valenz-charges read in
  non local Contribution for L=           0  read in
    real space projection operators read in
  non local Contribution for L=           0  read in
    real space projection operators read in
  non local Contribution for L=           1  read in
    real space projection operators read in
    PAW grid and wavefunctions read in
 
   number of l-projection  operators is LMAX  =           3
   number of lm-projection operators is LMMAX =           5
 
 Optimization of the real space projectors (new method)

 maximal supplied QI-value         = 15.12
 optimisation between [QCUT,QGAM] = [ 10.73, 21.62] = [ 32.26,130.87] Ry 
 Optimized for a Real-space Cutoff    1.42 Angstroem

   l    n(q)    QCUT    max X(q) W(low)/X(q) W(high)/X(q)  e(spline) 
   2      8    10.734    53.897    0.46E-03    0.48E-03    0.17E-06
   2      8    10.734    52.416    0.47E-03    0.50E-03    0.17E-06
   0      9    10.734   122.045    0.16E-03    0.13E-03    0.44E-07
   0      9    10.734    73.629    0.16E-03    0.13E-03    0.43E-07
   1      9    10.734    15.255    0.66E-04    0.32E-03    0.15E-06
   1      9    10.734     9.562    0.55E-04    0.26E-03    0.12E-06
 Optimization of the real space projectors (new method)

 maximal supplied QI-value         = 24.76
 optimisation between [QCUT,QGAM] = [ 10.64, 21.54] = [ 31.73,129.89] Ry 
 Optimized for a Real-space Cutoff    1.23 Angstroem

   l    n(q)    QCUT    max X(q) W(low)/X(q) W(high)/X(q)  e(spline) 
   0      8    10.645    20.381    0.38E-03    0.60E-03    0.15E-06
   0      8    10.645    15.268    0.40E-03    0.65E-03    0.17E-06
   1      7    10.645     5.964    0.30E-03    0.63E-03    0.18E-06
   1      7    10.645     5.382    0.24E-03    0.53E-03    0.16E-06
 Optimization of the real space projectors (new method)

 maximal supplied QI-value         = 25.13
 optimisation between [QCUT,QGAM] = [ 10.81, 21.61] = [ 32.71,130.83] Ry 
 Optimized for a Real-space Cutoff    1.23 Angstroem

   l    n(q)    QCUT    max X(q) W(low)/X(q) W(high)/X(q)  e(spline) 
   0      8    10.807   115.676    0.36E-03    0.72E-03    0.24E-06
   0      8    10.807    87.132    0.35E-03    0.71E-03    0.24E-06
   1      7    10.807     4.429    0.19E-03    0.39E-03    0.11E-06
   1      7    10.807     2.733    0.14E-03    0.28E-03    0.13E-06
 Optimization of the real space projectors (new method)

 maximal supplied QI-value         = 25.13
 optimisation between [QCUT,QGAM] = [ 10.81, 21.61] = [ 32.71,130.83] Ry 
 Optimized for a Real-space Cutoff    1.23 Angstroem

   l    n(q)    QCUT    max X(q) W(low)/X(q) W(high)/X(q)  e(spline) 
   0      8    10.807    79.467    0.34E-03    0.68E-03    0.21E-06
   0      8    10.807    66.151    0.34E-03    0.67E-03    0.21E-06
   1      7    10.807    14.030    0.45E-03    0.13E-02    0.11E-05
   1      7    10.807     9.831    0.48E-03    0.13E-02    0.11E-05
 Optimization of the real space projectors (new method)

 maximal supplied QI-value         = 34.20
 optimisation between [QCUT,QGAM] = [ 10.60, 21.55] = [ 31.48,130.03] Ry 
 Optimized for a Real-space Cutoff    1.23 Angstroem

   l    n(q)    QCUT    max X(q) W(low)/X(q) W(high)/X(q)  e(spline) 
   0      8    10.603    19.460    0.37E-03    0.59E-03    0.23E-06
   0      8    10.603    12.209    0.35E-03    0.56E-03    0.22E-06
   1      7    10.603     4.655    0.70E-04    0.28E-03    0.29E-06
  PAW_PBE Ag 02Apr2005                  :
 energy of atom  1       EATOM=-1037.2675
 kinetic energy error for atom=    0.0055 (will be added to EATOM!!)
  PAW_PBE O 08Apr2002                   :
 energy of atom  2       EATOM= -432.3788
 kinetic energy error for atom=    0.0389 (will be added to EATOM!!)
  PAW_PBE C 08Apr2002                   :
 energy of atom  3       EATOM= -147.1560
 kinetic energy error for atom=    0.0116 (will be added to EATOM!!)
  PAW_PBE N 08Apr2002                   :
 energy of atom  4       EATOM= -264.5486
 kinetic energy error for atom=    0.0253 (will be added to EATOM!!)
  PAW_PBE H 15Jun2001                   :
 energy of atom  5       EATOM=  -12.4884
 kinetic energy error for atom=    0.0045 (will be added to EATOM!!)
 
 
 POSCAR: Ag  O  C  N  H                          
  positions in direct lattice
  velocities in cartesian coordinates
 exchange correlation table for  LEXCH =        8
   RHO(1)=    0.500       N(1)  =     2000
   RHO(2)=  100.500       N(2)  =     4000
 


--------------------------------------------------------------------------------------------------------


 ion  position               nearest neighbor table
   1  0.000  0.000  0.000-  28 2.89   4 2.89   3 2.89  35 2.89  10 2.89   2 2.89  70 2.89  40 2.89
                            47 2.89
   2  1.000  0.167  0.000-  27 2.89   8 2.89   5 2.89  28 2.89   3 2.89   1 2.89  39 2.89  61 2.89
                            40 2.89
   3  0.167  0.167  0.000-  14 2.89  17 2.89   8 2.89   2 2.89   1 2.89   4 2.89  38 2.89  40 2.89
                            37 2.89
   4  0.167  0.000  0.000-  13 2.89  14 2.89   1 2.89  11 2.89  10 2.89   3 2.89  37 2.89  47 2.89
                            46 2.89
   5  0.000  0.333  0.000-   8 2.89  27 2.89   2 2.89  32 2.89   6 2.89   7 2.89  62 2.89  44 2.89
                            39 2.89
   6  0.000  0.500  0.000-  12 2.89   7 2.89   9 2.89  31 2.89   5 2.89  32 2.89  43 2.89  65 2.89
                            44 2.89
   7  0.167  0.500  0.000-   6 2.89  18 2.89  21 2.89  12 2.89   5 2.89   8 2.89  42 2.89  44 2.89
                            41 2.89
   8  0.167  0.333  0.000-   5 2.89   2 2.89   3 2.89  17 2.89  18 2.89   7 2.89  39 2.89  41 2.89
                            38 2.89
   9  0.000  0.667  0.000-  12 2.89  36 2.89  31 2.89  11 2.89   6 2.89  10 2.89  66 2.89  48 2.89
                            43 2.89
  10  1.000  0.833  0.000-  36 2.89  35 2.89   9 2.89  11 2.89   1 2.89   4 2.89  69 2.89  47 2.89
                            48 2.89
  11  0.167  0.833  0.000-  22 2.89   9 2.89  12 2.89  10 2.89   4 2.89  13 2.89  46 2.89  48 2.89
                            45 2.89
  12  0.167  0.667  0.000-   6 2.89   9 2.89  22 2.89  11 2.89   7 2.89  21 2.89  43 2.89  45 2.89
                            42 2.89
  13  0.333  0.000  0.000-   4 2.89  16 2.89  15 2.89  22 2.89  11 2.89  14 2.89  46 2.89  52 2.89
                            59 2.89
  14  0.333  0.167  0.000-   3 2.89  17 2.89   4 2.89  20 2.89  15 2.89  13 2.89  51 2.89  37 2.89
                            52 2.89
  15  0.500  0.167  0.000-  26 2.89  20 2.89  29 2.89  14 2.89  13 2.89  16 2.89  50 2.89  52 2.89
                            49 2.89
  16  0.500  0.000  0.000-  25 2.89  26 2.89  13 2.89  23 2.89  22 2.89  15 2.89  49 2.89  59 2.89
                            58 2.89
  17  0.333  0.333  0.000-  14 2.89   3 2.89   8 2.89  20 2.89  19 2.89  18 2.89  38 2.89  56 2.89
                            51 2.89
  18  0.333  0.500  0.000-   7 2.89  21 2.89  24 2.89  19 2.89   8 2.89  17 2.89  55 2.89  41 2.89
                            56 2.89
  19  0.500  0.500  0.000-  30 2.89  24 2.89  33 2.89  18 2.89  17 2.89  20 2.89  54 2.89  56 2.89
                            53 2.89
  20  0.500  0.333  0.000-  29 2.89  15 2.89  30 2.89  14 2.89  17 2.89  19 2.89  53 2.89  51 2.89
                            50 2.89
  21  0.333  0.667  0.000-  18 2.89  23 2.89   7 2.89  22 2.89  12 2.89  24 2.89  42 2.89  60 2.89
                            55 2.89
  22  0.333  0.833  0.000-  11 2.89  12 2.89  21 2.89  23 2.89  13 2.89  16 2.89  45 2.89  59 2.89
                            60 2.89
  23  0.500  0.833  0.000-  34 2.89  21 2.89  24 2.89  22 2.89  25 2.89  16 2.89  58 2.89  60 2.89
                            57 2.89
  24  0.500  0.667  0.000-  34 2.89  33 2.89  19 2.89  23 2.89  18 2.89  21 2.89  57 2.89  55 2.89
                            54 2.89
  25  0.667  0.000  0.000-  16 2.89  28 2.89  23 2.89  27 2.89  34 2.89  26 2.89  58 2.89  64 2.89
                            71 2.89
  26  0.667  0.167  0.000-  15 2.89  32 2.89  29 2.89  16 2.89  27 2.89  25 2.89  63 2.89  49 2.89
                            64 2.89
  27  0.833  0.167  0.000-   2 2.89   5 2.89  32 2.89  26 2.89  25 2.89  28 2.89  62 2.89  64 2.89
                            61 2.89
  28  0.833  0.000  0.000-   1 2.89   2 2.89  25 2.89  35 2.89  34 2.89  27 2.89  61 2.89  71 2.89
                            70 2.89
  29  0.667  0.333  0.000-  20 2.89  32 2.89  15 2.89  26 2.89  31 2.89  30 2.89  50 2.89  68 2.89
                            63 2.89
  30  0.667  0.500  0.000-  19 2.89  33 2.89  20 2.89  36 2.89  31 2.89  29 2.89  67 2.89  53 2.89
                            68 2.89
  31  0.833  0.500  0.000-   9 2.89  36 2.89  30 2.89   6 2.89  32 2.89  29 2.89  66 2.89  68 2.89
                            65 2.89
  32  0.833  0.333  0.000-  29 2.89  26 2.89  27 2.89   5 2.89  31 2.89   6 2.89  63 2.89  65 2.89
                            62 2.89
  33  0.667  0.667  0.000-  24 2.89  19 2.89  30 2.89  35 2.89  34 2.89  36 2.89  54 2.89  72 2.89
                            67 2.89
  34  0.667  0.833  0.000-  24 2.89  23 2.89  33 2.89  35 2.89  25 2.89  28 2.89  57 2.89  71 2.89
                            72 2.89
  35  0.833  0.833  0.000-  10 2.89  33 2.89  36 2.89  34 2.89   1 2.89  28 2.89  70 2.89  72 2.89
                            69 2.89
  36  0.833  0.667  0.000-  10 2.89   9 2.89  31 2.89  35 2.89  30 2.89  33 2.89  69 2.89  67 2.89
                            66 2.89
  37  0.222  0.111  0.107-  52 2.89  51 2.89  38 2.89  40 2.89  46 2.89  47 2.89  14 2.89   4 2.89
                             3 2.89  76 2.90  74 2.90  75 2.91
  38  0.222  0.278  0.107-  51 2.89  37 2.89  56 2.89  40 2.89  39 2.89  41 2.89   3 2.89  17 2.89
                             8 2.89  79 2.89  73 2.90  76 2.91
  39  0.056  0.278  0.107-  62 2.89  61 2.89  40 2.89  38 2.89  44 2.89  41 2.89   2 2.89   8 2.89
                             5 2.89  73 2.90  78 2.90 100 2.91
  40  0.056  0.111  0.107-  61 2.89  39 2.89  70 2.89  38 2.89  37 2.89  47 2.89   1 2.89   3 2.89
                             2 2.89  73 2.90  74 2.90  99 2.91
  41  0.222  0.444  0.107-  79 2.89  56 2.89  55 2.89  42 2.89  44 2.89  39 2.89  38 2.89  18 2.89
                             8 2.89   7 2.89  80 2.90  78 2.90
  42  0.222  0.611  0.107-  80 2.89  55 2.89  41 2.89  60 2.89  44 2.89  43 2.89  45 2.89   7 2.89
                            21 2.89  12 2.89  77 2.92  83 2.92
  43  0.056  0.611  0.107-  66 2.89  65 2.89  44 2.89  42 2.89  48 2.89  45 2.89   6 2.89  12 2.89
                             9 2.89  77 2.91 104 2.91  82 2.92
  44  0.056  0.444  0.107-  65 2.89  43 2.89  62 2.89  42 2.89  41 2.89  39 2.89   5 2.89   7 2.89
                             6 2.89  78 2.89  77 2.92 103 2.92
  45  0.222  0.778  0.107-  60 2.89  59 2.89  46 2.89  48 2.89  42 2.89  43 2.89  22 2.89  12 2.89
                            11 2.89  83 2.91  82 2.92  84 2.92
  46  0.222  0.944  0.107-  59 2.89  45 2.89  52 2.89  48 2.89  47 2.89  37 2.89  13 2.89  11 2.89
                             4 2.89  75 2.91  81 2.91  84 2.92
  47  0.056  0.944  0.107-  70 2.89  69 2.89  48 2.89  46 2.89  40 2.89  37 2.89  10 2.89   4 2.89
                             1 2.89 108 2.90  74 2.90  81 2.91
  48  0.056  0.778  0.107-  69 2.89  47 2.89  66 2.89  46 2.89  45 2.89  43 2.89  11 2.89   9 2.89
                            10 2.89 107 2.90  81 2.91  82 2.92
  49  0.556  0.111  0.107-  64 2.89  63 2.89  50 2.89  52 2.89  58 2.89  59 2.89  26 2.89  16 2.89
                            15 2.89  86 2.91  87 2.91  88 2.92
  50  0.556  0.278  0.107-  63 2.89  49 2.89  68 2.89  52 2.89  51 2.89  53 2.89  15 2.89  29 2.89
                            20 2.89  91 2.91  88 2.92  85 2.92
  51  0.389  0.278  0.107-  38 2.89  37 2.89  52 2.89  50 2.89  53 2.89  56 2.89  14 2.89  20 2.89
                            17 2.89  76 2.90  90 2.92  85 2.92
  52  0.389  0.111  0.107-  37 2.89  51 2.89  46 2.89  50 2.89  49 2.89  59 2.89  13 2.89  15 2.89
                            14 2.89  75 2.91  86 2.91  85 2.92
  53  0.556  0.444  0.107-  68 2.89  67 2.89  54 2.89  56 2.89  51 2.89  50 2.89  30 2.89  20 2.89
                            19 2.89  92 2.91  91 2.91  90 2.92
  54  0.556  0.611  0.107-  67 2.89  53 2.89  72 2.89  56 2.89  55 2.89  57 2.89  19 2.89  33 2.89
                            24 2.89  89 2.90  92 2.90  95 2.90
  55  0.389  0.611  0.107-  42 2.89  41 2.89  56 2.89  54 2.89  60 2.89  57 2.89  18 2.89  24 2.89
                            21 2.89  89 2.89  80 2.90  94 2.91
  56  0.389  0.444  0.107-  41 2.89  55 2.89  38 2.89  54 2.89  53 2.89  51 2.89  17 2.89  19 2.89
                            18 2.89  79 2.89  89 2.90  90 2.92
  57  0.556  0.778  0.107-  72 2.89  71 2.89  58 2.89  60 2.89  54 2.89  55 2.89  34 2.89  24 2.89
                            23 2.89  95 2.89  94 2.91  96 2.92
  58  0.556  0.944  0.107-  71 2.89  57 2.89  64 2.89  60 2.89  59 2.89  49 2.89  25 2.89  23 2.89
                            16 2.89  96 2.91  87 2.92  93 2.92
  59  0.389  0.944  0.107-  46 2.89  45 2.89  60 2.89  58 2.89  52 2.89  49 2.89  22 2.89  16 2.89
                            13 2.89  93 2.91  86 2.91  84 2.92
  60  0.389  0.778  0.107-  45 2.89  59 2.89  42 2.89  58 2.89  57 2.89  55 2.89  23 2.89  21 2.89
                            22 2.89  94 2.90  83 2.92  93 2.92
  61  0.889  0.111  0.107-  40 2.89  39 2.89  62 2.89  64 2.89  70 2.89  71 2.89   2 2.89  28 2.89
                            27 2.89  99 2.91 100 2.91  98 2.91
  62  0.889  0.278  0.107-  39 2.89  61 2.89  44 2.89  64 2.89  63 2.89  65 2.89  27 2.89   5 2.89
                            32 2.89 100 2.91  97 2.92 103 2.92
  63  0.722  0.278  0.107-  50 2.89  49 2.89  64 2.89  62 2.89  65 2.89  68 2.89  26 2.89  32 2.89
                            29 2.89 102 2.91  88 2.92  97 2.92
  64  0.722  0.111  0.107-  49 2.89  63 2.89  58 2.89  62 2.89  61 2.89  71 2.89  25 2.89  27 2.89
                            26 2.89  98 2.91  87 2.92  97 2.92
  65  0.889  0.444  0.107-  44 2.89  43 2.89  66 2.89  68 2.89  63 2.89  62 2.89   6 2.89  32 2.89
                            31 2.89 102 2.91 104 2.92 103 2.92
  66  0.889  0.611  0.107- 101 2.89  43 2.89  65 2.89  48 2.89  68 2.89  67 2.89  69 2.89  31 2.89
                             9 2.89  36 2.89 107 2.91 104 2.91
  67  0.722  0.611  0.107-  54 2.89  53 2.89  68 2.89  66 2.89  72 2.89  69 2.89  30 2.89  36 2.89
                            33 2.89 106 2.90 101 2.90  92 2.90
  68  0.722  0.444  0.107-  53 2.89  67 2.89  50 2.89  66 2.89  65 2.89  63 2.89  29 2.89  31 2.89
                            30 2.89 101 2.90  91 2.91 102 2.92
  69  0.889  0.778  0.107-  48 2.89  47 2.89  70 2.89  72 2.89  66 2.89  67 2.89  10 2.89  36 2.89
                            35 2.89 106 2.89 108 2.90 107 2.91
  70  0.889  0.944  0.107-  47 2.89  69 2.89  40 2.89  72 2.89  71 2.89  61 2.89   1 2.89  35 2.89
                            28 2.89 108 2.90 105 2.90  99 2.91
  71  0.722  0.944  0.107-  58 2.89  57 2.89  72 2.89  70 2.89  64 2.89  61 2.89  34 2.89  28 2.89
                            25 2.89 105 2.90  98 2.91  96 2.91
  72  0.722  0.778  0.107-  57 2.89  71 2.89  54 2.89  70 2.89  69 2.89  67 2.89  35 2.89  33 2.89
                            34 2.89 106 2.89  95 2.90 105 2.91
  73  0.111  0.222  0.214-  99 2.89 100 2.89  74 2.89  40 2.90  79 2.90  76 2.90  39 2.90  38 2.90
                            78 2.90 116 2.91 111 2.92 110 2.94
  74  0.111  0.055  0.215- 108 2.89  81 2.89  76 2.89  73 2.89  75 2.89  99 2.89  47 2.90  37 2.90
                            40 2.90 111 2.92 112 2.93 109 2.94
  75  0.278  0.056  0.215-  84 2.89  76 2.89  86 2.89  81 2.89  74 2.89  85 2.89  46 2.91  52 2.91
                            37 2.91 122 2.93 112 2.93 121 2.94
  76  0.278  0.222  0.215-  75 2.89  74 2.89  85 2.89  90 2.90  73 2.90  79 2.90  37 2.90 125 2.90
                            51 2.90  38 2.91 111 2.92 122 2.93
  77  0.111  0.556  0.215- 104 2.88  82 2.88  80 2.89  78 2.89  83 2.89 103 2.89  43 2.91  44 2.92
                            42 2.92 115 2.92 120 2.94 114 2.94
  78  0.111  0.389  0.214- 103 2.88  77 2.89 100 2.89  80 2.89  44 2.89 116 2.90  79 2.90  39 2.90
                            41 2.90  73 2.90 115 2.94 113 2.95
  79  0.278  0.389  0.214-  41 2.89  38 2.89  56 2.89  73 2.90 126 2.90  76 2.90  89 2.90  90 2.90
                            78 2.90  80 2.90 125 2.91 116 2.92
  80  0.277  0.556  0.214- 126 2.88  42 2.89  83 2.89  77 2.89  78 2.89  94 2.89  41 2.90  55 2.90
                            89 2.90  79 2.90 129 2.95 115 2.95
  81  0.111  0.889  0.215-  84 2.89 107 2.89  82 2.89  74 2.89 108 2.89  75 2.89  46 2.91  48 2.91
                            47 2.91 118 2.93 112 2.93 119 2.94
  82  0.111  0.722  0.215-  83 2.88  77 2.88 107 2.89  81 2.89  84 2.89 104 2.89  48 2.92  45 2.92
                            43 2.92 117 2.93 120 2.93 119 2.94
  83  0.278  0.723  0.215-  82 2.88  80 2.89  84 2.89  94 2.89  93 2.89  77 2.89  45 2.91  60 2.92
                            42 2.92 129 2.93 120 2.94 130 2.94
  84  0.278  0.889  0.215-  83 2.89  93 2.89  81 2.89  75 2.89  82 2.89  86 2.89  46 2.92  59 2.92
                            45 2.92 130 2.93 121 2.93 119 2.93
  85  0.445  0.222  0.215-  91 2.89  88 2.89  86 2.89  90 2.89  76 2.89  75 2.89  50 2.92  51 2.92
                            52 2.92 122 2.92 123 2.93 128 2.93
  86  0.444  0.056  0.215-  93 2.89  75 2.89  87 2.89  88 2.89  85 2.89  84 2.89  52 2.91  49 2.91
                            59 2.91 124 2.93 121 2.94 123 2.94
  87  0.611  0.056  0.215-  96 2.88  98 2.89  88 2.89  86 2.89  97 2.89  93 2.89  49 2.91  64 2.92
                            58 2.92 133 2.93 124 2.93 134 2.94
  88  0.611  0.222  0.215-  91 2.89  87 2.89  85 2.89  97 2.89  86 2.89 102 2.89  49 2.92  63 2.92
                            50 2.92 134 2.93 123 2.94 137 2.94
  89  0.444  0.556  0.214-  55 2.89  95 2.89  94 2.89  92 2.89  54 2.90  79 2.90  90 2.90 126 2.90
                            56 2.90  80 2.90 127 2.91 132 2.93
  90  0.445  0.389  0.215-  91 2.89  92 2.89  85 2.89  76 2.90 125 2.90  79 2.90  89 2.90 127 2.91
                            53 2.92  56 2.92  51 2.92 128 2.93
  91  0.611  0.389  0.215-  85 2.89  88 2.89  90 2.89 102 2.89 101 2.90  92 2.90 138 2.90  50 2.91
                            68 2.91  53 2.91 137 2.94 128 2.94
  92  0.611  0.556  0.215-  90 2.89  89 2.89 106 2.89  91 2.90  95 2.90 138 2.90  54 2.90 101 2.90
                            67 2.90  53 2.91 141 2.91 127 2.92
  93  0.444  0.889  0.215-  94 2.89  86 2.89  84 2.89  96 2.89  83 2.89  87 2.89  59 2.91  60 2.92
                            58 2.92 131 2.93 124 2.93 130 2.94
  94  0.444  0.723  0.215-  93 2.89  83 2.89  96 2.89  80 2.89  89 2.89  95 2.89  60 2.90 132 2.91
                            57 2.91  55 2.91 129 2.94 131 2.94
  95  0.611  0.723  0.214- 105 2.89  96 2.89  57 2.89  89 2.89 141 2.89  94 2.89  72 2.90  92 2.90
                           106 2.90  54 2.90 132 2.92 142 2.94
  96  0.611  0.889  0.215-  87 2.88  95 2.89  93 2.89  98 2.89  94 2.89 105 2.89  58 2.91  71 2.91
                            57 2.92 142 2.92 131 2.93 133 2.94
  97  0.778  0.222  0.215-  98 2.89 103 2.89 102 2.89  88 2.89 100 2.89  87 2.89  63 2.92  62 2.92
                            64 2.92 135 2.93 134 2.94 140 2.94
  98  0.778  0.056  0.215- 105 2.89  97 2.89  87 2.89 100 2.89  96 2.89  99 2.89  64 2.91  61 2.91
                            71 2.91 136 2.93 133 2.94 135 2.94
  99  0.944  0.055  0.215-  73 2.89 105 2.89 108 2.89 100 2.89  98 2.89  74 2.89  70 2.91  61 2.91
                            40 2.91 109 2.93 110 2.93 136 2.93
 100  0.944  0.222  0.215-  73 2.89  98 2.89  97 2.89  78 2.89  99 2.89 103 2.89  62 2.91  61 2.91
                            39 2.91 110 2.93 135 2.94 113 2.94
 101  0.778  0.556  0.214- 104 2.88 102 2.89  66 2.89 107 2.89  68 2.90  91 2.90 106 2.90  67 2.90
                            92 2.90 138 2.91 144 2.92 139 2.95
 102  0.778  0.389  0.215- 101 2.89 103 2.89  97 2.89 104 2.89  91 2.89  88 2.89  65 2.91  63 2.91
                            68 2.92 140 2.93 137 2.93 139 2.94
 103  0.944  0.389  0.215-  78 2.88 102 2.89  97 2.89 104 2.89  77 2.89 100 2.89  65 2.92  62 2.92
                            44 2.92 113 2.93 140 2.93 114 2.94
 104  0.944  0.556  0.215-  77 2.88 101 2.88 103 2.89 102 2.89 107 2.89  82 2.89  43 2.91  66 2.91
                            65 2.92 114 2.93 139 2.93 117 2.94
 105  0.778  0.889  0.214-  98 2.89  95 2.89  99 2.89  96 2.89 106 2.90  71 2.90 108 2.90 143 2.90
                            70 2.90  72 2.91 142 2.93 136 2.94
 106  0.778  0.723  0.214- 108 2.89  69 2.89  72 2.89 107 2.89  92 2.89  67 2.90 105 2.90 101 2.90
                            95 2.90 141 2.90 144 2.92 143 2.92
 107  0.945  0.722  0.215-  82 2.89  81 2.89 104 2.89 101 2.89 108 2.89 106 2.89  48 2.90  69 2.91
                            66 2.91 144 2.91 118 2.93 117 2.94
 108  0.945  0.889  0.214-  74 2.89  99 2.89  81 2.89 106 2.89 107 2.89  47 2.90 105 2.90  70 2.90
                           143 2.90  69 2.90 118 2.94 109 2.94
 109  0.000  0.000  0.324- 143 2.88 111 2.88 110 2.89 112 2.89 118 2.89 136 2.89  99 2.93  74 2.94
                           108 2.94
 110  1.000  0.167  0.324- 116 2.88 136 2.89 111 2.89 109 2.89 135 2.89 113 2.89 100 2.93  99 2.93
                            73 2.94
 111  0.166  0.166  0.323- 109 2.88 112 2.89 125 2.89 110 2.89 122 2.89 116 2.90  74 2.92  76 2.92
                            73 2.92
 112  0.167  0.000  0.324- 122 2.89 111 2.89 121 2.89 109 2.89 118 2.89 119 2.89  81 2.93  75 2.93
                            74 2.93
 113  1.000  0.333  0.324- 116 2.88 135 2.89 115 2.89 140 2.89 114 2.89 110 2.89 103 2.93 100 2.94
                            78 2.95
 114  1.000  0.500  0.325- 115 2.88 139 2.89 120 2.89 140 2.89 117 2.89 113 2.89 104 2.93 103 2.94
                            77 2.94
 115  0.166  0.500  0.324- 126 2.88 114 2.88 120 2.89 113 2.89 116 2.89 129 2.90  77 2.92  78 2.94
                            80 2.95
 116  0.165  0.333  0.322- 113 2.88 110 2.88 115 2.89 126 2.89  78 2.90 125 2.90 111 2.90  73 2.91
                            79 2.92
 117  1.000  0.667  0.324- 144 2.89 118 2.89 119 2.89 120 2.89 114 2.89 139 2.89  82 2.93 104 2.94
                           107 2.94
 118  0.000  0.834  0.324- 117 2.89 119 2.89 144 2.89 112 2.89 109 2.89 143 2.89  81 2.93 107 2.93
                           108 2.94
 119  0.167  0.834  0.325- 118 2.89 130 2.89 112 2.89 117 2.89 120 2.89 121 2.89  84 2.93  82 2.94
                            81 2.94
 120  0.166  0.667  0.325- 129 2.89 115 2.89 114 2.89 117 2.89 119 2.89 130 2.89  82 2.93  83 2.94
                            77 2.94
 121  0.333  0.000  0.324- 122 2.89 112 2.89 124 2.89 123 2.89 130 2.89 119 2.89  84 2.93  86 2.94
                            75 2.94
 122  0.333  0.167  0.324- 121 2.89 112 2.89 123 2.89 111 2.89 125 2.90 128 2.90  85 2.92  75 2.93
                            76 2.93
 123  0.500  0.167  0.325- 124 2.89 134 2.89 121 2.89 122 2.89 137 2.89 128 2.89  85 2.93  88 2.94
                            86 2.94
 124  0.500  0.000  0.324- 131 2.89 123 2.89 121 2.89 134 2.89 133 2.89 130 2.89  86 2.93  93 2.93
                            87 2.93
 125  0.333  0.333  0.322- 111 2.89 122 2.90  90 2.90 116 2.90  76 2.90 128 2.91 126 2.91 127 2.91
                            79 2.91
 126  0.332  0.501  0.321- 115 2.88 129 2.88  80 2.88 116 2.89  79 2.90 127 2.90  89 2.90 132 2.91
                           125 2.91
 127  0.500  0.502  0.323- 132 2.88 141 2.90 126 2.90  89 2.91 125 2.91  90 2.91  92 2.92 138 2.92
                           128 2.92
 128  0.500  0.334  0.324- 137 2.89 123 2.89 138 2.89 122 2.90 125 2.91 127 2.92  90 2.93  85 2.93
                            91 2.94
 129  0.333  0.667  0.324- 126 2.88 132 2.88 120 2.89 130 2.89 131 2.89 115 2.90  83 2.93  94 2.94
                            80 2.95
 130  0.333  0.834  0.325- 129 2.89 131 2.89 119 2.89 121 2.89 120 2.89 124 2.89  84 2.93  93 2.94
                            83 2.94
 131  0.500  0.834  0.324- 132 2.88 124 2.89 130 2.89 133 2.89 142 2.89 129 2.89  93 2.93  96 2.93
                            94 2.94
 132  0.499  0.668  0.323- 131 2.88 129 2.88 127 2.88 142 2.90 141 2.90  94 2.91 126 2.91  95 2.92
                            89 2.93
 133  0.667  0.000  0.324- 142 2.88 134 2.89 135 2.89 124 2.89 131 2.89 136 2.89  87 2.93  98 2.94
                            96 2.94
 134  0.667  0.167  0.324- 133 2.89 140 2.89 123 2.89 135 2.89 124 2.89 137 2.89  88 2.93  97 2.94
                            87 2.94
 135  0.833  0.167  0.324- 113 2.89 136 2.89 140 2.89 133 2.89 134 2.89 110 2.89  97 2.93 100 2.94
                            98 2.94
 136  0.833  0.000  0.324- 110 2.89 143 2.89 142 2.89 135 2.89 133 2.89 109 2.89  98 2.93  99 2.93
                           105 2.94
 137  0.667  0.334  0.324- 128 2.89 139 2.89 140 2.89 123 2.89 138 2.89 134 2.89 102 2.93  88 2.94
                            91 2.94
 138  0.667  0.501  0.322- 139 2.89 144 2.89 137 2.89 128 2.89  92 2.90  91 2.90 101 2.91 141 2.91
                           127 2.92
 139  0.833  0.500  0.324- 138 2.89 137 2.89 114 2.89 144 2.89 117 2.89 140 2.89 104 2.93 102 2.94
                           101 2.95
 140  0.833  0.333  0.325- 134 2.89 113 2.89 137 2.89 135 2.89 114 2.89 139 2.89 103 2.93 102 2.93
                            97 2.94
 141  0.667  0.668  0.322- 142 2.88 143 2.89  95 2.89 127 2.90 144 2.90 132 2.90 106 2.90  92 2.91
                           138 2.91
 142  0.667  0.834  0.324- 133 2.88 141 2.88 136 2.89 131 2.89 132 2.90 143 2.90  96 2.92 105 2.93
                            95 2.94
 143  0.834  0.834  0.322- 109 2.88 136 2.89 141 2.89 118 2.89 142 2.90 144 2.90 108 2.90 105 2.90
                           106 2.92
 144  0.833  0.667  0.322- 138 2.89 117 2.89 118 2.89 139 2.89 143 2.90 141 2.90 107 2.91 106 2.92
                           101 2.92
 145  0.647  0.673  0.465- 154 1.23
 146  0.760  0.642  0.474- 154 1.37 155 1.45
 147  0.242  0.304  0.472- 165 1.10 164 1.10 166 1.11 148 1.50
 148  0.341  0.363  0.465- 149 1.40 153 1.42 147 1.50
 149  0.398  0.328  0.465- 158 1.09 150 1.40 148 1.40
 150  0.491  0.383  0.464- 159 1.09 149 1.40 151 1.41
 151  0.528  0.476  0.463- 152 1.40 157 1.40 150 1.41
 152  0.473  0.513  0.460- 160 1.09 151 1.40 153 1.41
 153  0.379  0.457  0.463- 156 1.38 152 1.41 148 1.42
 154  0.673  0.619  0.468- 145 1.23 146 1.37 157 1.37
 155  0.821  0.736  0.479- 167 1.10 169 1.10 168 1.10 146 1.45
 156  0.326  0.495  0.465- 161 1.02 162 1.02 153 1.38
 157  0.621  0.528  0.466- 163 1.02 154 1.37 151 1.40
 158  0.369  0.256  0.466- 149 1.09
 159  0.534  0.353  0.465- 150 1.09
 160  0.502  0.585  0.460- 152 1.09
 161  0.261  0.457  0.453- 156 1.02
 162  0.354  0.560  0.452- 156 1.02
 163  0.655  0.494  0.467- 157 1.02
 164  0.219  0.316  0.516- 147 1.10
 165  0.223  0.234  0.469- 147 1.10
 166  0.205  0.316  0.436- 147 1.11
 167  0.888  0.744  0.475- 155 1.10
 168  0.810  0.772  0.442- 155 1.10
 169  0.812  0.761  0.523- 155 1.10
 
  LATTYP: Found a hexagonal cell.
 ALAT       =    17.3505005836
 C/A-ratio  =     1.2727759369
  
  Lattice vectors:
  
 A1 = (  17.3505005835,   0.0000000000,   0.0000000000)
 A2 = (  -8.6752502919,  15.0259742739,   0.0000000000)
 A3 = (   0.0000000000,   0.0000000000,  22.0832996368)


Analysis of symmetry for initial positions (statically):
=====================================================================
 Subroutine PRICEL returns:
 Original cell was already a primitive cell.
 

 Routine SETGRP: Setting up the symmetry group for a 
 hexagonal supercell.


 Subroutine GETGRP returns: Found  1 space group operations
 (whereof  1 operations were pure point group operations)
 out of a pool of 24 trial point group operations.


The static configuration has the point symmetry C_1 .


Analysis of symmetry for dynamics (positions and initial velocities):
=====================================================================
 Subroutine PRICEL returns:
 Original cell was already a primitive cell.
 

 Routine SETGRP: Setting up the symmetry group for a 
 hexagonal supercell.


 Subroutine GETGRP returns: Found  1 space group operations
 (whereof  1 operations were pure point group operations)
 out of a pool of 24 trial point group operations.


The dynamic configuration has the point symmetry C_1 .


Analysis of constrained symmetry for selective dynamics:
=====================================================================
 Subroutine PRICEL returns:
 Original cell was already a primitive cell.
 

 Routine SETGRP: Setting up the symmetry group for a 
 hexagonal supercell.


 Subroutine GETGRP returns: Found  1 space group operations
 (whereof  1 operations were pure point group operations)
 out of a pool of 24 trial point group operations.


The constrained configuration has the point symmetry C_1 .


 Subroutine INISYM returns: Found  1 space group operations
 (whereof  1 operations are pure point group operations),
 and found     1 'primitive' translations

 
 
 KPOINTS: K-POINTS                                

Automatic generation of k-mesh.
Space group operators:
 irot       det(A)        alpha          n_x          n_y          n_z        tau_x        tau_y        tau_z
    1     1.000000     0.000000     1.000000     0.000000     0.000000     0.000000     0.000000     0.000000
 
 Subroutine IBZKPT returns following result:
 ===========================================
 
 Found      5 irreducible k-points:
 
 Following reciprocal coordinates:
            Coordinates               Weight
  0.000000  0.000000  0.000000      1.000000
  0.333333  0.000000  0.000000      2.000000
  0.000000  0.333333  0.000000      2.000000
  0.333333  0.333333  0.000000      2.000000
 -0.333333  0.333333  0.000000      2.000000
 
 Following cartesian coordinates:
            Coordinates               Weight
  0.000000  0.000000  0.000000      1.000000
  0.019212  0.011092  0.000000      2.000000
  0.000000  0.022184  0.000000      2.000000
  0.019212  0.033276  0.000000      2.000000
 -0.019212  0.011092  0.000000      2.000000
 


--------------------------------------------------------------------------------------------------------




 Dimension of arrays:
   k-points           NKPTS =      5   k-points in BZ     NKDIM =      5   number of bands    NBANDS=   1008
   number of dos      NEDOS =    301   number of ions     NIONS =    169
   non local maximal  LDIM  =      6   non local SUM 2l+1 LMDIM =     18
   total plane-waves  NPLWV = 972000
   max r-space proj   IRMAX =   2084   max aug-charges    IRDMAX=   8500
   dimension x,y,z NGX =    90 NGY =   90 NGZ =  120
   dimension x,y,z NGXF=   180 NGYF=  180 NGZF=  240
   support grid    NGXF=   180 NGYF=  180 NGZF=  240
   ions per type =             144   2   9   2  12
   NGX,Y,Z   is equivalent  to a cutoff of   8.62,  8.62,  9.03 a.u.
   NGXF,Y,Z  is equivalent  to a cutoff of  17.25, 17.25, 18.07 a.u.

 SYSTEM =  x                                       
 POSCAR =  Ag  O  C  N  H                          

 Startparameter for this run:
   NWRITE =      0    write-flag & timer
   PREC   = normal    normal or accurate (medium, high low for compatibility)
   ISTART =      0    job   : 0-new  1-cont  2-samecut
   ICHARG =      2    charge: 1-file 2-atom 10-const
   ISPIN  =      1    spin polarized calculation?
   LNONCOLLINEAR =      F non collinear calculations
   LSORBIT =      F    spin-orbit coupling
   INIWAV =      1    electr: 0-lowe 1-rand  2-diag
   LASPH  =      F    aspherical Exc in radial PAW
   METAGGA=      F    non-selfconsistent MetaGGA calc.

 Electronic Relaxation 1
   ENCUT  =  450.0 eV  33.07 Ry    5.75 a.u.  30.01 30.01 38.20*2*pi/ulx,y,z
   ENINI  =  450.0     initial cutoff
   ENAUG  =  644.9 eV  augmentation charge cutoff
   NELM   =     50;   NELMIN=  5; NELMDL= -7     # of ELM steps 
   EDIFF  = 0.1E-04   stopping-criterion for ELM
   LREAL  =      T    real-space projection
   NLSPLINE    = F    spline interpolate recip. space projectors
   LCOMPAT=      F    compatible to vasp.4.4
   GGA_COMPAT  = T    GGA compatible to vasp.4.4-vasp.4.6
   LMAXPAW     = -100 max onsite density
   LMAXMIX     =    2 max onsite mixed and CHGCAR
   VOSKOWN=      0    Vosko Wilk Nusair interpolation
   ROPT   =   -0.00050  -0.00050  -0.00050  -0.00050
   ROPT   =   -0.00050
 Ionic relaxation
   EDIFFG = -.2E-01   stopping-criterion for IOM
   NSW    =    300    number of steps for IOM
   NBLOCK =      1;   KBLOCK =    300    inner block; outer block 
   IBRION =      2    ionic relax: 0-MD 1-quasi-New 2-CG
   NFREE  =      2    steps in history (QN), initial steepest desc. (CG)
   ISIF   =      2    stress and relaxation
   IWAVPR =     11    prediction:  0-non 1-charg 2-wave 3-comb
   ISYM   =      2    0-nonsym 1-usesym 2-fastsym
   LCORR  =      T    Harris-Foulkes like correction to forces

   POTIM  = 0.1500    time-step for ionic-motion
   TEIN   =    0.0    initial temperature
   TEBEG  =    0.0;   TEEND  =   0.0 temperature during run
   SMASS  =  -3.00    Nose mass-parameter (am)
   estimated Nose-frequenzy (Omega)   =  0.10E-29 period in steps =****** mass=  -0.688E-26a.u.
   SCALEE = 1.0000    scale energy and forces
   NPACO  =    256;   APACO  = 16.0  distance and # of slots for P.C.
   PSTRESS=    0.0 pullay stress

  Mass of Ions in am
   POMASS = 107.87 16.00 12.01 14.00  1.00
  Ionic Valenz
   ZVAL   =  11.00  6.00  4.00  5.00  1.00
  Atomic Wigner-Seitz radii
   RWIGS  =  -1.00 -1.00 -1.00 -1.00 -1.00
  virtual crystal weights 
   VCA    =   1.00  1.00  1.00  1.00  1.00
   NELECT =    1654.0000    total number of electrons
   NUPDOWN=      -1.0000    fix difference up-down

 DOS related values:
   EMIN   =  10.00;   EMAX   =-10.00  energy-range for DOS
   EFERMI =   0.00
   ISMEAR =     0;   SIGMA  =   0.03  broadening in eV -4-tet -1-fermi 0-gaus

 Electronic relaxation 2 (details)
   IALGO  =     68    algorithm
   LDIAG  =      T    sub-space diagonalisation (order eigenvalues)
   LSUBROT=      F    optimize rotation matrix (better conditioning)
   TURBO    =      0    0=normal 1=particle mesh
   IRESTART =      0    0=no restart 2=restart with 2 vectors
   NREBOOT  =      0    no. of reboots
   NMIN     =      0    reboot dimension
   EREF     =   0.00    reference energy to select bands
   IMIX   =      4    mixing-type and parameters
     AMIX     =   0.40;   BMIX     =  1.00
     AMIX_MAG =   1.60;   BMIX_MAG =  1.00
     AMIN     =   0.10
     WC   =   100.;   INIMIX=   1;  MIXPRE=   1;  MAXMIX= -45

 Intra band minimization:
   WEIMIN = 0.0010     energy-eigenvalue tresh-hold
   EBREAK =  0.25E-08  absolut break condition
   DEPER  =   0.30     relativ break condition  

   TIME   =   0.40     timestep for ELM

  volume/ion in A,a.u.               =      34.07       229.89
  Fermi-wavevector in a.u.,A,eV,Ry     =   1.080224  2.041327 15.876417  1.166884
  Thomas-Fermi vector in A             =   2.216209
 
 Write flags
   LWAVE        =      F    write WAVECAR
   LDOWNSAMPLE  =      F    k-point downsampling of WAVECAR
   LCHARG       =      F    write CHGCAR
   LVTOT        =      F    write LOCPOT, total local potential
   LVHAR        =      F    write LOCPOT, Hartree potential only
   LELF         =      F    write electronic localiz. function (ELF)
   LORBIT       =      0    0 simple, 1 ext, 2 COOP (PROOUT), +10 PAW based schemes


 Dipole corrections
   LMONO  =      F    monopole corrections only (constant potential shift)
   LDIPOL =      T    correct potential (dipole corrections)
   IDIPOL =      3    1-x, 2-y, 3-z, 4-all directions 
   EPSILON=  1.0000000 bulk dielectric constant

 Exchange correlation treatment:
   GGA     =    PE    GGA type
   LEXCH   =     8    internal setting for exchange type
   VOSKOWN=      0    Vosko Wilk Nusair interpolation
   LHFCALC =     F    Hartree Fock is set to
   LHFONE  =     F    Hartree Fock one center treatment
   AEXX    =    0.0000 exact exchange contribution

 Linear response parameters
   LEPSILON=     F    determine dielectric tensor
   LRPA    =     F    only Hartree local field effects (RPA)
   LNABLA  =     F    use nabla operator in PAW spheres
   LVEL    =     F    velocity operator in full k-point grid
   LINTERFAST=   F  fast interpolation
   KINTER  =     0    interpolate to denser k-point grid
   CSHIFT  =0.1000    complex shift for real part using Kramers Kronig
   OMEGAMAX=  -1.0    maximum frequency
   DEG_THRESHOLD= 0.2000000E-02 threshold for treating states as degnerate
   RTIME   =   -0.100 relaxation time in fs
  (WPLASMAI=    0.000 imaginary part of plasma frequency in eV, 0.658/RTIME)
   DFIELD  = 0.0000000 0.0000000 0.0000000 field for delta impulse in time
 
 Orbital magnetization related:
   ORBITALMAG=     F  switch on orbital magnetization
   LCHIMAG   =     F  perturbation theory with respect to B field
   DQ        =  0.001000  dq finite difference perturbation B field
   LLRAUG    =     F  two centre corrections for induced B field



--------------------------------------------------------------------------------------------------------


 conjugate gradient relaxation of ions
   using selective dynamics as specified on POSCAR
 charge density and potential will be updated during run
 non-spin polarized calculation
 RMM-DIIS sequential band-by-band and
  variant of blocked Davidson during initial phase
 perform sub-space diagonalisation
    before iterative eigenvector-optimisation
 modified Broyden-mixing scheme, WC =      100.0
 initial mixing is a Kerker type mixing with AMIX =  0.4000 and BMIX =      1.0000
 Hartree-type preconditioning will be used
 using additional bands          181
 real space projection scheme for non local part
 use partial core corrections
 calculate Harris-corrections to forces 
   (improved forces if not selfconsistent)
 use gradient corrections 
 use of overlap-Matrix (Vanderbilt PP)
 Gauss-broadening in eV      SIGMA  =   0.03


--------------------------------------------------------------------------------------------------------


  energy-cutoff  :      450.00
  volume of cell :     5757.30
      direct lattice vectors                 reciprocal lattice vectors
    17.350500584  0.000000000  0.000000000     0.057635225  0.033275713  0.000000000
    -8.675250292 15.025974274  0.000000000     0.000000000  0.066551425  0.000000000
     0.000000000  0.000000000 22.083299637     0.000000000  0.000000000  0.045283088

  length of vectors
    17.350500584 17.350500584 22.083299637     0.066551425  0.066551425  0.045283088


 
 k-points in units of 2pi/SCALE and weight: K-POINTS                                
   0.00000000  0.00000000  0.00000000       0.111
   0.01921174  0.01109190  0.00000000       0.222
   0.00000000  0.02218381  0.00000000       0.222
   0.01921174  0.03327571  0.00000000       0.222
  -0.01921174  0.01109190  0.00000000       0.222
 
 k-points in reciprocal lattice and weights: K-POINTS                                
   0.00000000  0.00000000  0.00000000       0.111
   0.33333333  0.00000000  0.00000000       0.222
   0.00000000  0.33333333  0.00000000       0.222
   0.33333333  0.33333333  0.00000000       0.222
  -0.33333333  0.33333333  0.00000000       0.222
 
 position of ions in fractional coordinates (direct lattice) 
   0.00000000  0.00000000  0.00000000
   1.00000000  0.16666667  0.00000000
   0.16666667  0.16666667  0.00000000
   0.16666667  0.00000000  0.00000000
   0.00000000  0.33333333  0.00000000
   0.00000000  0.50000000  0.00000000
   0.16666667  0.50000000  0.00000000
   0.16666667  0.33333333  0.00000000
   0.00000000  0.66666667  0.00000000
   1.00000000  0.83333333  0.00000000
   0.16666667  0.83333333  0.00000000
   0.16666667  0.66666667  0.00000000
   0.33333333  0.00000000  0.00000000
   0.33333333  0.16666667  0.00000000
   0.50000000  0.16666667  0.00000000
   0.50000000  0.00000000  0.00000000
   0.33333333  0.33333333  0.00000000
   0.33333333  0.50000000  0.00000000
   0.50000000  0.50000000  0.00000000
   0.50000000  0.33333333  0.00000000
   0.33333333  0.66666667  0.00000000
   0.33333333  0.83333333  0.00000000
   0.50000000  0.83333333  0.00000000
   0.50000000  0.66666667  0.00000000
   0.66666667  0.00000000  0.00000000
   0.66666667  0.16666667  0.00000000
   0.83333333  0.16666667  0.00000000
   0.83333333  0.00000000  0.00000000
   0.66666667  0.33333333  0.00000000
   0.66666667  0.50000000  0.00000000
   0.83333333  0.50000000  0.00000000
   0.83333333  0.33333333  0.00000000
   0.66666667  0.66666667  0.00000000
   0.66666667  0.83333333  0.00000000
   0.83333333  0.83333333  0.00000000
   0.83333333  0.66666667  0.00000000
   0.22222334  0.11111000  0.10692000
   0.22222334  0.27777666  0.10692000
   0.05555666  0.27777666  0.10692000
   0.05555666  0.11111000  0.10692000
   0.22222334  0.44444333  0.10692000
   0.22222334  0.61110999  0.10692000
   0.05555666  0.61110999  0.10692000
   0.05555666  0.44444333  0.10692000
   0.22222334  0.77777667  0.10692000
   0.22222334  0.94444333  0.10692000
   0.05555666  0.94444333  0.10692000
   0.05555666  0.77777667  0.10692000
   0.55555667  0.11111000  0.10692000
   0.55555667  0.27777666  0.10692000
   0.38889000  0.27777666  0.10692000
   0.38889000  0.11111000  0.10692000
   0.55555667  0.44444333  0.10692000
   0.55555667  0.61110999  0.10692000
   0.38889000  0.61110999  0.10692000
   0.38889000  0.44444333  0.10692000
   0.55555667  0.77777667  0.10692000
   0.55555667  0.94444333  0.10692000
   0.38889000  0.94444333  0.10692000
   0.38889000  0.77777667  0.10692000
   0.88889001  0.11111000  0.10692000
   0.88889001  0.27777666  0.10692000
   0.72222333  0.27777666  0.10692000
   0.72222333  0.11111000  0.10692000
   0.88889001  0.44444333  0.10692000
   0.88889001  0.61110999  0.10692000
   0.72222333  0.61110999  0.10692000
   0.72222333  0.44444333  0.10692000
   0.88889001  0.77777667  0.10692000
   0.88889001  0.94444333  0.10692000
   0.72222333  0.94444333  0.10692000
   0.72222333  0.77777667  0.10692000
   0.11069819  0.22187063  0.21424581
   0.11107018  0.05538616  0.21450767
   0.27781720  0.05551183  0.21469203
   0.27774274  0.22201233  0.21454574
   0.11078500  0.55587447  0.21506543
   0.11066477  0.38923203  0.21425946
   0.27752289  0.38887785  0.21387029
   0.27719898  0.55611114  0.21401613
   0.11123127  0.88888670  0.21491344
   0.11111115  0.72231079  0.21520611
   0.27750496  0.72255389  0.21516562
   0.27774208  0.88897429  0.21532590
   0.44458041  0.22231453  0.21540467
   0.44444175  0.05559306  0.21507956
   0.61110352  0.05563027  0.21513927
   0.61112585  0.22220569  0.21513560
   0.44438366  0.55603426  0.21413437
   0.44459882  0.38898338  0.21537616
   0.61106261  0.38872719  0.21468265
   0.61105336  0.55574666  0.21450247
   0.44420137  0.88909388  0.21521607
   0.44409105  0.72270018  0.21453280
   0.61099995  0.72287355  0.21423727
   0.61086872  0.88929734  0.21494264
   0.77777432  0.22225219  0.21517409
   0.77770545  0.05572618  0.21497498
   0.94433137  0.05548493  0.21481785
   0.94438700  0.22220374  0.21500393
   0.77819723  0.55553950  0.21402571
   0.77781379  0.38888734  0.21511457
   0.94434161  0.38889587  0.21531477
   0.94445090  0.55556013  0.21512324
   0.77756591  0.88926448  0.21444888
   0.77798908  0.72250339  0.21395625
   0.94472647  0.72236615  0.21458932
   0.94474365  0.88910198  0.21441019
   0.00006393  0.00019718  0.32391788
   0.99983676  0.16669522  0.32389771
   0.16629874  0.16644808  0.32286246
   0.16666419  0.00017284  0.32393815
   0.99968689  0.33341700  0.32441352
   0.99976504  0.50021153  0.32455810
   0.16591090  0.50013426  0.32391898
   0.16543955  0.33342775  0.32170032
   0.99990422  0.66695218  0.32437218
   0.00007856  0.83352394  0.32387030
   0.16659174  0.83351994  0.32453271
   0.16645923  0.66678022  0.32459746
   0.33332846  0.00031980  0.32440227
   0.33318697  0.16654886  0.32380749
   0.50006124  0.16689622  0.32453221
   0.49996924  0.00035197  0.32443554
   0.33257440  0.33317968  0.32213186
   0.33181336  0.50050199  0.32083348
   0.49954247  0.50178500  0.32259612
   0.50039859  0.33385054  0.32441015
   0.33294608  0.66706605  0.32404794
   0.33313182  0.83356279  0.32463657
   0.49976748  0.83387519  0.32421334
   0.49944689  0.66797836  0.32277259
   0.66665153  0.00041576  0.32436576
   0.66666016  0.16694985  0.32449352
   0.83330415  0.16696563  0.32439570
   0.83339425  0.00046529  0.32409864
   0.66672017  0.33372954  0.32436890
   0.66717789  0.50067480  0.32187697
   0.83323831  0.50026919  0.32433941
   0.83317532  0.33349901  0.32450536
   0.66697301  0.66838202  0.32158246
   0.66677952  0.83439045  0.32376923
   0.83380712  0.83434798  0.32202892
   0.83349164  0.66699484  0.32233752
   0.64656628  0.67259006  0.46490276
   0.76002805  0.64158628  0.47412417
   0.24187223  0.30422581  0.47208024
   0.34065327  0.36303715  0.46524347
   0.39827054  0.32841723  0.46474373
   0.49079606  0.38258377  0.46369519
   0.52834648  0.47573895  0.46317366
   0.47259448  0.51257073  0.46025892
   0.37928845  0.45688256  0.46264970
   0.67282255  0.61884891  0.46810330
   0.82108631  0.73617593  0.47889200
   0.32603605  0.49503191  0.46466398
   0.62143811  0.52771062  0.46577149
   0.36943728  0.25624247  0.46614960
   0.53363757  0.35327308  0.46542495
   0.50162114  0.58453046  0.46003429
   0.26109001  0.45709588  0.45259176
   0.35388435  0.56001925  0.45237130
   0.65547424  0.49411928  0.46724070
   0.21865572  0.31582104  0.51590588
   0.22265918  0.23365910  0.46911300
   0.20460062  0.31640455  0.43631765
   0.88758751  0.74407206  0.47497123
   0.80957720  0.77188678  0.44197606
   0.81247674  0.76111375  0.52261996
 
 position of ions in cartesian coordinates  (Angst):
   0.00000000  0.00000000  0.00000000
  15.90462553  2.50432905  0.00000000
   1.44587505  2.50432905  0.00000000
   2.89175010  0.00000000  0.00000000
  -2.89175010  5.00865809  0.00000000
  -4.33762515  7.51298714  0.00000000
  -1.44587505  7.51298714  0.00000000
  -0.00000000  5.00865809  0.00000000
  -5.78350019 10.01731618  0.00000000
  10.12112534 12.52164523  0.00000000
  -4.33762515 12.52164523  0.00000000
  -2.89175010 10.01731618  0.00000000
   5.78350019  0.00000000  0.00000000
   4.33762515  2.50432905  0.00000000
   7.22937524  2.50432905  0.00000000
   8.67525029  0.00000000  0.00000000
   2.89175010  5.00865809  0.00000000
   1.44587505  7.51298714  0.00000000
   4.33762515  7.51298714  0.00000000
   5.78350019  5.00865809  0.00000000
  -0.00000000 10.01731618  0.00000000
  -1.44587505 12.52164523  0.00000000
   1.44587505 12.52164523  0.00000000
   2.89175010 10.01731618  0.00000000
  11.56700039  0.00000000  0.00000000
  10.12112534  2.50432905  0.00000000
  13.01287544  2.50432905  0.00000000
  14.45875049  0.00000000  0.00000000
   8.67525029  5.00865809  0.00000000
   7.22937524  7.51298714  0.00000000
  10.12112534  7.51298714  0.00000000
  11.56700039  5.00865809  0.00000000
   5.78350019 10.01731618  0.00000000
   4.33762515 12.52164523  0.00000000
   7.22937524 12.52164523  0.00000000
   8.67525029 10.01731618  0.00000000
   2.89177914  1.66953603  2.36114631
   1.44590417  4.17386493  2.36114631
  -1.44584609  4.17386493  2.36114631
   0.00002887  1.66953603  2.36114631
   0.00002904  6.67819412  2.36114631
  -1.44584592  9.18252302  2.36114631
  -4.33759619  9.18252302  2.36114631
  -2.89172122  6.67819412  2.36114631
  -2.89172106 11.68685221  2.36114631
  -4.33759602 14.19118111  2.36114631
  -7.22934629 14.19118111  2.36114631
  -5.78347132 11.68685221  2.36114631
   8.67527933  1.66953603  2.36114631
   7.22940437  4.17386493  2.36114631
   4.33765410  4.17386493  2.36114631
   5.78352907  1.66953603  2.36114631
   5.78352924  6.67819412  2.36114631
   4.33765427  9.18252302  2.36114631
   1.44590401  9.18252302  2.36114631
   2.89177897  6.67819412  2.36114631
   2.89177914 11.68685221  2.36114631
   1.44590417 14.19118111  2.36114631
  -1.44584609 14.19118111  2.36114631
   0.00002887 11.68685221  2.36114631
  14.45877953  1.66953603  2.36114631
  13.01290456  4.17386493  2.36114631
  10.12115430  4.17386493  2.36114631
  11.56702926  1.66953603  2.36114631
  11.56702943  6.67819412  2.36114631
  10.12115447  9.18252302  2.36114631
   7.22940420  9.18252302  2.36114631
   8.67527917  6.67819412  2.36114631
   8.67527933 11.68685221  2.36114631
   7.22940437 14.19118111  2.36114631
   4.33765410 14.19118111  2.36114631
   5.78352907 11.68685221  2.36114631
  -0.00411422  3.33382235  4.73125435
   1.44663439  0.83223098  4.73703725
   4.33868858  0.83411926  4.74110854
   2.89296307  3.33595159  4.73787782
  -2.90017492  8.35255555  4.74935424
  -1.45659607  5.84859052  4.73155592
   1.44154844  5.84326852  4.72296177
  -0.01486235  8.35611175  4.72618229
  -5.78139631 13.35638867  4.74599778
  -4.33839278 10.85342339  4.75246099
  -1.45348592 10.85707611  4.75156696
  -2.89311036 13.35770476  4.75510646
   5.78505855  3.34049239  4.75684597
   7.22900310  0.83533985  4.74966648
  10.12034558  0.83589894  4.75098493
   8.67564937  3.33885698  4.75090387
   2.88654255  8.35495650  4.72879342
   4.33948382  5.84485426  4.75621636
   7.22993644  5.84100475  4.74090123
   5.78084032  8.35063496  4.73692242
  -0.00599585 13.35950181  4.75268093
   1.43559707 10.85927425  4.73759203
   4.33004603 10.86187936  4.73106592
   2.88400110 13.36255892  4.74664273
  11.56668034  3.33955569  4.75175401
  13.01014031  0.83734015  4.74735689
  15.90327633  0.83371513  4.74388696
  14.45791410  3.33882770  4.74799625
   8.68266723  8.34752231  4.72639382
  10.12176361  5.84341111  4.75043940
  13.01103067  5.84353939  4.75486052
  11.56707273  8.34783226  4.75063105
   5.77656589 13.36206523  4.73573893
   7.23060215 10.85631742  4.72486007
  10.12476998 10.85425515  4.73884030
   8.67859305 13.35962354  4.73488454
  -0.00060142  0.00296289  7.15317560
  15.90154554  2.50475816  7.15273009
   1.44138768  2.50104458  7.12986841
   2.89020775  0.00259703  7.15362322
  14.45259203  5.00991520  7.16412099
  13.00696371  7.51616560  7.16731386
  -1.46015275  7.51500455  7.15319982
  -0.02211014  5.01007676  7.10420446
  11.56286168 10.02160632  7.16320798
  -7.22966584 12.52450935  7.15212486
  -4.34054401 12.52444923  7.16675317
  -2.89633421 10.01902237  7.16818299
   5.78064129  0.00480535  7.16387253
   4.33610766  2.50255882  7.15073781
   7.22844630  2.50777825  7.16674211
   8.67166318  0.00528873  7.16460714
   2.87991532  5.00634923  7.11373432
   1.41514787  7.52053005  7.08506196
   4.31420144  7.53980843  7.12398671
   5.78592894  5.01642967  7.16404656
  -0.01018383 10.02331727  7.15604765
  -1.45136202 12.52509306  7.16904663
   1.43713998 12.52978720  7.15970035
   2.87077401 10.03702570  7.12788377
  11.56313091  0.00624715  7.16306627
  10.11855576  2.50858415  7.16588774
  13.00977547  2.50882119  7.16372749
  14.45577097  0.00699146  7.15716742
   8.67274137  5.01461143  7.16313569
   7.23239116  7.52312674  7.10810560
  10.11714138  7.51703198  7.16248429
  11.56282145  5.01114760  7.16614911
   5.77393431 10.04309106  7.10160175
   4.33041245 12.53752944  7.14989287
   7.22879338 12.53689124  7.11146110
   8.67514990 10.02224735  7.11827605
   5.38336151 10.10632098 10.26658705
   7.62094553  9.64045891 10.47022609
   1.55736925  4.57128920 10.42508940
   2.76106667  5.45498684 10.27411104
   4.06109155  4.93478891 10.26307500
   5.19654744  5.74869391 10.23991982
   5.03992138  7.14844125 10.22840266
   3.75307146  7.70187461 10.16403566
   2.61727394  6.86510556 10.21683193
   6.30513890  9.29880785 10.33726539
   7.85974804 11.06176059 10.57551560
   1.36236300  7.43833681 10.26131401
   6.20424046  7.92936626 10.28577132
   4.18695414  3.85029281 10.29412122
   6.19414651  5.30827218 10.27811853
   3.63242985  8.78313963 10.15907511
   0.56462120  6.86831089  9.99471949
   1.28176341  8.41483487  9.98985088
   7.08619785  7.42462353 10.31821647
   1.05395959  4.74551883 11.39290410
   1.83619712  3.51095567 10.35956296
   0.80503447  4.75428657  9.63533329
   8.94507631 11.18040761 10.48893209
   7.35025872 11.59835095  9.76028987
   7.49402589 11.43647556 11.54117326
 


--------------------------------------------------------------------------------------------------------


 k-point  1 :   0.0000 0.0000 0.0000  plane waves:  124805
 k-point  2 :   0.3333 0.0000 0.0000  plane waves:  124786
 k-point  3 :   0.0000 0.3333 0.0000  plane waves:  124786
 k-point  4 :   0.3333 0.3333 0.0000  plane waves:  124836
 k-point  5 :  -0.3333 0.3333 0.0000  plane waves:  124786

 maximum and minimum number of plane-waves per node :    124836   124786

 maximum number of plane-waves:    124836
 maximum index in each direction: 
   IXMAX=   30   IYMAX=   30   IZMAX=   38
   IXMIN=  -30   IYMIN=  -30   IZMIN=  -38


 serial   3D FFT for wavefunctions
 parallel 3D FFT for charge:
    minimum data exchange during FFTs selected (reduces bandwidth)


 total amount of memory used by VASP MPI-rank0   363333. kBytes
=======================================================================

   base      :      30000. kBytes
   nonlr-proj:      53654. kBytes
   fftplans  :       9705. kBytes
   grid      :      52925. kBytes
   one-center:       2628. kBytes
   wavefun   :     214421. kBytes
 
     INWAV:  cpu time    0.0000: real time    0.0003
 Broyden mixing: mesh for mixing (old mesh)
   NGX = 61   NGY = 61   NGZ = 77
  (NGX  =180   NGY  =180   NGZ  =240)
  gives a total of 286517 points

 initial charge density was supplied:
 charge density of overlapping atoms calculated
 number of electron    1654.0000000 magnetization 
 keeping initial charge density in first step


--------------------------------------------------------------------------------------------------------


 Maximum index for non-local projection operator         2037
 Maximum index for augmentation-charges          451 (set IRDMAX)


--------------------------------------------------------------------------------------------------------


 First call to EWALD:  gamma=   0.099
 Maximum number of real-space cells 3x 3x 2
 Maximum number of reciprocal cells 3x 3x 3

    FEWALD:  cpu time    0.0062: real time    0.0062


--------------------------------------- Iteration      1(   1)  ---------------------------------------


    POTLOK:  cpu time    0.1606: real time    0.1702
    SETDIJ:  cpu time    0.0170: real time    0.0257
     EDDAV:  cpu time   67.8634: real time   67.9598
       DOS:  cpu time    0.0048: real time    0.0072
    --------------------------------------------
      LOOP:  cpu time   68.0458: real time   68.1630

 eigenvalue-minimisations  : 10080
 total energy-change (2. order) : 0.1005150E+05  (-0.7274751E+05)
 number of electron    1654.0000000 magnetization 
 augmentation part     1654.0000000 magnetization 

 DIPCOR: dipole corrections for dipol
 direction  3 min pos   167,
 dipolmoment           0.000000      0.000000     -0.002483 electrons x Angstroem
 Tr[quadrupol]    -86586.170588

 energy correction for charged system         0.000000 eV
 dipol+quadrupol energy correction           -0.000000 eV
 added-field ion interaction         -0.050109 eV  (added to PSCEN)


 Free energy of the ion-electron system (eV)
  ---------------------------------------------------
  alpha Z        PSCENC =      3286.03769823
  Ewald energy   TEWEN  =    381819.28268149
  -Hartree energ DENC   =   -538659.23906895
  -exchange      EXHF   =         0.00000000
  -V(xc)+E(xc)   XCENC  =     -1289.92198246
  PAW double counting   =    146603.82066668  -139974.77714806
  entropy T*S    EENTRO =        -0.03174711
  eigenvalues    EBANDS =      6032.76777864
  atomic energy  EATOM  =    152233.56501011
  Solvation  Ediel_sol  =         0.00000000
  ---------------------------------------------------
  free energy    TOTEN  =     10051.50388856 eV

  energy without entropy =    10051.53563567  energy(sigma->0) =    10051.51976212


--------------------------------------------------------------------------------------------------------




--------------------------------------- Iteration      1(   2)  ---------------------------------------


     EDDAV:  cpu time   73.4873: real time   74.1893
       DOS:  cpu time    0.0023: real time    0.0023
    --------------------------------------------
      LOOP:  cpu time   73.4896: real time   74.1916

 eigenvalue-minimisations  : 10800
 total energy-change (2. order) :-0.1013942E+05  (-0.9593658E+04)
 number of electron    1654.0000000 magnetization 
 augmentation part     1654.0000000 magnetization 

 DIPCOR: dipole corrections for dipol
 direction  3 min pos   167,
 dipolmoment           0.000000      0.000000     -0.002483 electrons x Angstroem
 Tr[quadrupol]    -86586.170588

 energy correction for charged system         0.000000 eV
 dipol+quadrupol energy correction           -0.000000 eV
 added-field ion interaction         -0.050109 eV  (added to PSCEN)


 Free energy of the ion-electron system (eV)
  ---------------------------------------------------
  alpha Z        PSCENC =      3286.03769823
  Ewald energy   TEWEN  =    381819.28268149
  -Hartree energ DENC   =   -538659.23906895
  -exchange      EXHF   =         0.00000000
  -V(xc)+E(xc)   XCENC  =     -1289.92198246
  PAW double counting   =    146603.82066668  -139974.77714806
  entropy T*S    EENTRO =        -0.02952590
  eigenvalues    EBANDS =     -4106.65221277
  atomic energy  EATOM  =    152233.56501011
  Solvation  Ediel_sol  =         0.00000000
  ---------------------------------------------------
  free energy    TOTEN  =       -87.91388163 eV

  energy without entropy =      -87.88435574  energy(sigma->0) =      -87.89911869


--------------------------------------------------------------------------------------------------------




--------------------------------------- Iteration      1(   3)  ---------------------------------------


     EDDAV:  cpu time   73.8805: real time   73.9468
       DOS:  cpu time    0.0031: real time    0.0031
    --------------------------------------------
      LOOP:  cpu time   73.8835: real time   73.9498

 eigenvalue-minimisations  : 11568
 total energy-change (2. order) :-0.4723687E+03  (-0.4626406E+03)
 number of electron    1654.0000000 magnetization 
 augmentation part     1654.0000000 magnetization 

 DIPCOR: dipole corrections for dipol
 direction  3 min pos   167,
 dipolmoment           0.000000      0.000000     -0.002483 electrons x Angstroem
 Tr[quadrupol]    -86586.170588

 energy correction for charged system         0.000000 eV
 dipol+quadrupol energy correction           -0.000000 eV
 added-field ion interaction         -0.050109 eV  (added to PSCEN)


 Free energy of the ion-electron system (eV)
  ---------------------------------------------------
  alpha Z        PSCENC =      3286.03769823
  Ewald energy   TEWEN  =    381819.28268149
  -Hartree energ DENC   =   -538659.23906895
  -exchange      EXHF   =         0.00000000
  -V(xc)+E(xc)   XCENC  =     -1289.92198246
  PAW double counting   =    146603.82066668  -139974.77714806
  entropy T*S    EENTRO =        -0.02599097
  eigenvalues    EBANDS =     -4579.02449352
  atomic energy  EATOM  =    152233.56501011
  Solvation  Ediel_sol  =         0.00000000
  ---------------------------------------------------
  free energy    TOTEN  =      -560.28262746 eV

  energy without entropy =     -560.25663649  energy(sigma->0) =     -560.26963197


--------------------------------------------------------------------------------------------------------




--------------------------------------- Iteration      1(   4)  ---------------------------------------


     EDDAV:  cpu time   73.2520: real time   73.6377
       DOS:  cpu time    0.0032: real time    0.0032
    --------------------------------------------
      LOOP:  cpu time   73.2552: real time   73.6408

 eigenvalue-minimisations  : 11520
 total energy-change (2. order) :-0.1059155E+02  (-0.1049622E+02)
 number of electron    1654.0000000 magnetization 
 augmentation part     1654.0000000 magnetization 

 DIPCOR: dipole corrections for dipol
 direction  3 min pos   167,
 dipolmoment           0.000000      0.000000     -0.002483 electrons x Angstroem
 Tr[quadrupol]    -86586.170588

 energy correction for charged system         0.000000 eV
 dipol+quadrupol energy correction           -0.000000 eV
 added-field ion interaction         -0.050109 eV  (added to PSCEN)


 Free energy of the ion-electron system (eV)
  ---------------------------------------------------
  alpha Z        PSCENC =      3286.03769823
  Ewald energy   TEWEN  =    381819.28268149
  -Hartree energ DENC   =   -538659.23906895
  -exchange      EXHF   =         0.00000000
  -V(xc)+E(xc)   XCENC  =     -1289.92198246
  PAW double counting   =    146603.82066668  -139974.77714806
  entropy T*S    EENTRO =        -0.03062669
  eigenvalues    EBANDS =     -4589.61140533
  atomic energy  EATOM  =    152233.56501011
  Solvation  Ediel_sol  =         0.00000000
  ---------------------------------------------------
  free energy    TOTEN  =      -570.87417499 eV

  energy without entropy =     -570.84354830  energy(sigma->0) =     -570.85886165


--------------------------------------------------------------------------------------------------------




--------------------------------------- Iteration      1(   5)  ---------------------------------------


     EDDAV:  cpu time   74.5633: real time   74.9437
       DOS:  cpu time    0.0036: real time    0.0036
    --------------------------------------------
      LOOP:  cpu time   74.5669: real time   74.9473

 eigenvalue-minimisations  : 11760
 total energy-change (2. order) :-0.3116867E+00  (-0.3112733E+00)
 number of electron    1654.0000000 magnetization 
 augmentation part     1654.0000000 magnetization 

 DIPCOR: dipole corrections for dipol
 direction  3 min pos   167,
 dipolmoment           0.000000      0.000000     -0.002483 electrons x Angstroem
 Tr[quadrupol]    -86586.170588

 energy correction for charged system         0.000000 eV
 dipol+quadrupol energy correction           -0.000000 eV
 added-field ion interaction         -0.050109 eV  (added to PSCEN)


 Free energy of the ion-electron system (eV)
  ---------------------------------------------------
  alpha Z        PSCENC =      3286.03769823
  Ewald energy   TEWEN  =    381819.28268149
  -Hartree energ DENC   =   -538659.23906895
  -exchange      EXHF   =         0.00000000
  -V(xc)+E(xc)   XCENC  =     -1289.92198246
  PAW double counting   =    146603.82066668  -139974.77714806
  entropy T*S    EENTRO =        -0.03056225
  eigenvalues    EBANDS =     -4589.92315647
  atomic energy  EATOM  =    152233.56501011
  Solvation  Ediel_sol  =         0.00000000
  ---------------------------------------------------
  free energy    TOTEN  =      -571.18586168 eV

  energy without entropy =     -571.15529944  energy(sigma->0) =     -571.17058056


--------------------------------------------------------------------------------------------------------




--------------------------------------- Iteration      1(   6)  ---------------------------------------


     EDDAV:  cpu time   76.7312: real time   76.8028
       DOS:  cpu time    0.0030: real time    0.0030
    --------------------------------------------
      LOOP:  cpu time   76.7342: real time   76.8058

 eigenvalue-minimisations  : 12144
 total energy-change (2. order) :-0.1025708E-01  (-0.1025297E-01)
 number of electron    1654.0000000 magnetization 
 augmentation part     1654.0000000 magnetization 

 DIPCOR: dipole corrections for dipol
 direction  3 min pos   167,
 dipolmoment           0.000000      0.000000     -0.002483 electrons x Angstroem
 Tr[quadrupol]    -86586.170588

 energy correction for charged system         0.000000 eV
 dipol+quadrupol energy correction           -0.000000 eV
 added-field ion interaction         -0.050109 eV  (added to PSCEN)


 Free energy of the ion-electron system (eV)
  ---------------------------------------------------
  alpha Z        PSCENC =      3286.03769823
  Ewald energy   TEWEN  =    381819.28268149
  -Hartree energ DENC   =   -538659.23906895
  -exchange      EXHF   =         0.00000000
  -V(xc)+E(xc)   XCENC  =     -1289.92198246
  PAW double counting   =    146603.82066668  -139974.77714806
  entropy T*S    EENTRO =        -0.03055665
  eigenvalues    EBANDS =     -4589.93341914
  atomic energy  EATOM  =    152233.56501011
  Solvation  Ediel_sol  =         0.00000000
  ---------------------------------------------------
  free energy    TOTEN  =      -571.19611876 eV

  energy without entropy =     -571.16556211  energy(sigma->0) =     -571.18084043


--------------------------------------------------------------------------------------------------------




--------------------------------------- Iteration      1(   7)  ---------------------------------------


     EDDAV:  cpu time   93.0137: real time   93.1380
       DOS:  cpu time    0.0032: real time    0.0032
    CHARGE:  cpu time    2.8583: real time    2.8647
    MIXING:  cpu time    0.0045: real time    0.0066
    --------------------------------------------
      LOOP:  cpu time   95.8798: real time   96.0125

 eigenvalue-minimisations  : 14448
 total energy-change (2. order) :-0.5776467E-03  (-0.5776151E-03)
 number of electron    1654.0000759 magnetization 
 augmentation part      737.2428890 magnetization 

 DIPCOR: dipole corrections for dipol
 direction  3 min pos   167,
 dipolmoment           0.000000      0.000000     -0.002483 electrons x Angstroem
 Tr[quadrupol]    -86586.170588

 energy correction for charged system         0.000000 eV
 dipol+quadrupol energy correction           -0.000000 eV
 added-field ion interaction         -0.050109 eV  (added to PSCEN)


 Broyden mixing:
  rms(total) = 0.59310E+01    rms(broyden)= 0.59302E+01
  rms(prec ) = 0.62577E+01
  weight for this iteration     100.00

 Free energy of the ion-electron system (eV)
  ---------------------------------------------------
  alpha Z        PSCENC =      3286.03769823
  Ewald energy   TEWEN  =    381819.28268149
  -Hartree energ DENC   =   -538659.23906895
  -exchange      EXHF   =         0.00000000
  -V(xc)+E(xc)   XCENC  =     -1289.92198246
  PAW double counting   =    146603.82066668  -139974.77714806
  entropy T*S    EENTRO =        -0.03055661
  eigenvalues    EBANDS =     -4589.93399683
  atomic energy  EATOM  =    152233.56501011
  Solvation  Ediel_sol  =         0.00000000
  ---------------------------------------------------
  free energy    TOTEN  =      -571.19669640 eV

  energy without entropy =     -571.16613980  energy(sigma->0) =     -571.18141810


--------------------------------------------------------------------------------------------------------




--------------------------------------- Iteration      1(   8)  ---------------------------------------


    POTLOK:  cpu time    0.1494: real time    0.1498
    SETDIJ:  cpu time    0.0136: real time    0.0136
    EDDIAG:  cpu time   13.1487: real time   13.1634
  RMM-DIIS:  cpu time   31.3708: real time   31.4203
    ORTHCH:  cpu time    4.4207: real time    4.4251
       DOS:  cpu time    0.0011: real time    0.0011
    CHARGE:  cpu time    2.8505: real time    2.8526
    MIXING:  cpu time    0.0047: real time    0.0101
    --------------------------------------------
      LOOP:  cpu time   51.9596: real time   52.0359

 eigenvalue-minimisations  : 10107
 total energy-change (2. order) : 0.3793917E+02  (-0.1477478E+02)
 number of electron    1654.0000751 magnetization 
 augmentation part      758.6773541 magnetization 

 DIPCOR: dipole corrections for dipol
 direction  3 min pos   171,
 dipolmoment           0.000000      0.000000      2.436545 electrons x Angstroem
 Tr[quadrupol]    -86584.397856

 energy correction for charged system         0.000000 eV
 dipol+quadrupol energy correction           -0.094307 eV
 added-field ion interaction         96.290440 eV  (added to PSCEN)


 Broyden mixing:
  rms(total) = 0.40265E+01    rms(broyden)= 0.40254E+01
  rms(prec ) = 0.43835E+01
  weight for this iteration     100.00

 eigenvalues of (default mixing * dielectric matrix)
  average eigenvalue GAMMA=   1.0335
  1.0335

 Free energy of the ion-electron system (eV)
  ---------------------------------------------------
  alpha Z        PSCENC =      3382.28393976
  Ewald energy   TEWEN  =    381819.28268149
  -Hartree energ DENC   =   -537404.39122242
  -exchange      EXHF   =         0.00000000
  -V(xc)+E(xc)   XCENC  =     -1328.27554183
  PAW double counting   =    153251.59682408  -146751.94514906
  entropy T*S    EENTRO =        -0.02762133
  eigenvalues    EBANDS =     -5735.34644447
  atomic energy  EATOM  =    152233.56501011
  Solvation  Ediel_sol  =         0.00000000
  ---------------------------------------------------
  free energy    TOTEN  =      -533.25752367 eV

  energy without entropy =     -533.22990234  energy(sigma->0) =     -533.24371301


--------------------------------------------------------------------------------------------------------




--------------------------------------- Iteration      1(   9)  ---------------------------------------


    POTLOK:  cpu time    0.1488: real time    0.1497
    SETDIJ:  cpu time    0.0137: real time    0.0137
    EDDIAG:  cpu time   13.1864: real time   13.1999
  RMM-DIIS:  cpu time   30.8463: real time   30.8928
    ORTHCH:  cpu time    4.4229: real time    4.4294
       DOS:  cpu time    0.0011: real time    0.0011
    CHARGE:  cpu time    2.8409: real time    2.8431
    MIXING:  cpu time    0.0048: real time    0.0049
    --------------------------------------------
      LOOP:  cpu time   51.4648: real time   51.5346

 eigenvalue-minimisations  : 10082
 total energy-change (2. order) :-0.2827193E+02  (-0.3385983E+01)
 number of electron    1654.0000749 magnetization 
 augmentation part      758.1099872 magnetization 

 DIPCOR: dipole corrections for dipol
 direction  3 min pos   169,
 dipolmoment           0.000000      0.000000     -5.295584 electrons x Angstroem
 Tr[quadrupol]    -86587.678733

 energy correction for charged system         0.000000 eV
 dipol+quadrupol energy correction           -0.445475 eV
 added-field ion interaction       -158.066628 eV  (added to PSCEN)


 Broyden mixing:
  rms(total) = 0.29417E+01    rms(broyden)= 0.29414E+01
  rms(prec ) = 0.45839E+01
  weight for this iteration     100.00

 eigenvalues of (default mixing * dielectric matrix)
  average eigenvalue GAMMA=   1.1141
  1.5699  0.6582

 Free energy of the ion-electron system (eV)
  ---------------------------------------------------
  alpha Z        PSCENC =      3127.57570470
  Ewald energy   TEWEN  =    381819.28268149
  -Hartree energ DENC   =   -537582.00873682
  -exchange      EXHF   =         0.00000000
  -V(xc)+E(xc)   XCENC  =     -1333.59761410
  PAW double counting   =    157328.09463374  -150906.03291235
  entropy T*S    EENTRO =        -0.01259726
  eigenvalues    EBANDS =     -5248.39562047
  atomic energy  EATOM  =    152233.56501011
  Solvation  Ediel_sol  =         0.00000000
  ---------------------------------------------------
  free energy    TOTEN  =      -561.52945097 eV

  energy without entropy =     -561.51685371  energy(sigma->0) =     -561.52315234


--------------------------------------------------------------------------------------------------------




--------------------------------------- Iteration      1(  10)  ---------------------------------------


    POTLOK:  cpu time    0.1464: real time    0.1470
    SETDIJ:  cpu time    0.0138: real time    0.0138
    EDDIAG:  cpu time   13.0925: real time   13.1032
  RMM-DIIS:  cpu time   31.0615: real time   31.0954
    ORTHCH:  cpu time    4.4442: real time    4.4510
       DOS:  cpu time    0.0011: real time    0.0011
    CHARGE:  cpu time    2.9535: real time    2.9553
    MIXING:  cpu time    0.0047: real time    0.0047
    --------------------------------------------
      LOOP:  cpu time   51.7177: real time   51.7715

 eigenvalue-minimisations  : 10102
 total energy-change (2. order) : 0.2407825E+02  (-0.3374286E+01)
 number of electron    1654.0000763 magnetization 
 augmentation part      760.2766133 magnetization 

 DIPCOR: dipole corrections for dipol
 direction  3 min pos   173,
 dipolmoment           0.000000      0.000000      3.079263 electrons x Angstroem
 Tr[quadrupol]    -86601.806108

 energy correction for charged system         0.000000 eV
 dipol+quadrupol energy correction           -0.150622 eV
 added-field ion interaction        151.468119 eV  (added to PSCEN)


 Broyden mixing:
  rms(total) = 0.20462E+01    rms(broyden)= 0.20461E+01
  rms(prec ) = 0.29726E+01
  weight for this iteration     100.00

 eigenvalues of (default mixing * dielectric matrix)
  average eigenvalue GAMMA=   1.1662
  2.3211  0.9090  0.2685

 Free energy of the ion-electron system (eV)
  ---------------------------------------------------
  alpha Z        PSCENC =      3437.40530445
  Ewald energy   TEWEN  =    381819.28268149
  -Hartree energ DENC   =   -537508.44554918
  -exchange      EXHF   =         0.00000000
  -V(xc)+E(xc)   XCENC  =     -1336.48709828
  PAW double counting   =    159753.29209141  -153379.03728198
  entropy T*S    EENTRO =        -0.02251634
  eigenvalues    EBANDS =     -5557.00384144
  atomic energy  EATOM  =    152233.56501011
  Solvation  Ediel_sol  =         0.00000000
  ---------------------------------------------------
  free energy    TOTEN  =      -537.45119977 eV

  energy without entropy =     -537.42868343  energy(sigma->0) =     -537.43994160


--------------------------------------------------------------------------------------------------------




--------------------------------------- Iteration      1(  11)  ---------------------------------------


    POTLOK:  cpu time    0.1498: real time    0.1516
    SETDIJ:  cpu time    0.0137: real time    0.0137
    EDDIAG:  cpu time   13.0118: real time   13.0225
  RMM-DIIS:  cpu time   31.1386: real time   31.1668
    ORTHCH:  cpu time    4.4130: real time    4.4156
       DOS:  cpu time    0.0011: real time    0.0011
    CHARGE:  cpu time    2.8517: real time    2.8538
    MIXING:  cpu time    0.0050: real time    0.0050
    --------------------------------------------
[...]
      5.78506      3.34049      4.75685        -0.005718     -0.002263      0.001520
      7.22900      0.83534      4.74967         0.002443      0.002555      0.001314
     10.12035      0.83590      4.75098        -0.003703      0.001140      0.001563
      8.67565      3.33886      4.75090        -0.001340      0.003668      0.001405
      2.88654      8.35496      4.72879         0.005883     -0.001555      0.003819
      4.33948      5.84485      4.75622         0.002299     -0.000028      0.002001
      7.22994      5.84100      4.74090        -0.003409     -0.003171      0.001192
      5.78084      8.35063      4.73692        -0.000050     -0.004273     -0.005138
     -0.00600     13.35950      4.75268         0.000641      0.003095      0.001684
      1.43560     10.85927      4.73759        -0.000557     -0.001804      0.001341
      4.33005     10.86188      4.73107         0.000323     -0.000637      0.004243
      2.88400     13.36256      4.74664        -0.001557      0.001419      0.002229
     11.56668      3.33956      4.75175        -0.000451     -0.001150      0.000629
     13.01014      0.83734      4.74736         0.005914      0.002408      0.001661
     15.90328      0.83372      4.74389        -0.000739      0.005221      0.001572
     14.45791      3.33883      4.74800        -0.007053      0.008834      0.003141
      8.68267      8.34752      4.72639        -0.000999      0.001129      0.008178
     10.12176      5.84341      4.75044        -0.007212     -0.004022     -0.000617
     13.01103      5.84354      4.75486        -0.001660      0.002126     -0.001527
     11.56707      8.34783      4.75063        -0.005790     -0.000010      0.008862
      5.77657     13.36207      4.73574         0.002310      0.003590      0.001948
      7.23060     10.85632      4.72486        -0.000531     -0.002717     -0.001287
     10.12477     10.85426      4.73884         0.006191     -0.001149     -0.009833
      8.67859     13.35962      4.73488         0.003628      0.001233      0.002417
     -0.00060      0.00296      7.15318         0.002814     -0.001801     -0.001700
     15.90155      2.50476      7.15273         0.004015     -0.002677      0.005676
      1.44139      2.50104      7.12987        -0.000767     -0.000238      0.000762
      2.89021      0.00260      7.15362        -0.001522     -0.001197      0.000894
     14.45259      5.00992      7.16412        -0.002917      0.003005      0.001624
     13.00696      7.51617      7.16731        -0.001857     -0.002059     -0.000937
     -1.46015      7.51500      7.15320        -0.000061     -0.002612      0.002644
     -0.02211      5.01008      7.10420        -0.000447      0.000128      0.003912
     11.56286     10.02161      7.16321         0.002564     -0.005318     -0.001002
     -7.22967     12.52451      7.15212         0.001062     -0.001233      0.001496
     -4.34054     12.52445      7.16675         0.000557      0.000075     -0.001307
     -2.89633     10.01902      7.16818         0.003424      0.004887     -0.003366
      5.78064      0.00481      7.16387         0.000139     -0.001868      0.001837
      4.33611      2.50256      7.15074        -0.001003     -0.000348      0.000295
      7.22845      2.50778      7.16674         0.001997     -0.001988     -0.004026
      8.67166      0.00529      7.16461        -0.000194     -0.004098     -0.001139
      2.87992      5.00635      7.11373         0.003963     -0.004096      0.001264
      1.41515      7.52053      7.08506        -0.001097      0.000524      0.003684
      4.31420      7.53981      7.12399         0.002288      0.000311      0.002246
      5.78593      5.01643      7.16405        -0.007250     -0.004055     -0.001782
     -0.01018     10.02332      7.15605        -0.001583     -0.000403     -0.000284
     -1.45136     12.52509      7.16905         0.001488      0.001017     -0.003741
      1.43714     12.52979      7.15970         0.001951     -0.000265     -0.000139
      2.87077     10.03703      7.12788         0.002525      0.000392     -0.002054
     11.56313      0.00625      7.16307        -0.000593      0.003420      0.000417
     10.11856      2.50858      7.16589        -0.002664     -0.001655     -0.003298
     13.00978      2.50882      7.16373         0.000140     -0.002106      0.001364
     14.45577      0.00699      7.15717        -0.001077      0.003932     -0.002728
      8.67274      5.01461      7.16314         0.001350     -0.000862     -0.002131
      7.23239      7.52313      7.10811        -0.000587      0.003203      0.001180
     10.11714      7.51703      7.16248         0.000245     -0.001811     -0.002106
     11.56282      5.01115      7.16615         0.001858      0.001294      0.000528
      5.77393     10.04309      7.10160         0.000324     -0.001590      0.002309
      4.33041     12.53753      7.14989        -0.001054     -0.001194     -0.002362
      7.22879     12.53689      7.11146         0.001074     -0.004727      0.006815
      8.67515     10.02225      7.11828        -0.002337     -0.001741      0.004237
      5.38336     10.10632     10.26659        -0.003471      0.001535      0.000175
      7.62095      9.64046     10.47023         0.009469     -0.005520      0.006825
      1.55737      4.57129     10.42509         0.015126     -0.008293      0.074368
      2.76107      5.45499     10.27411         0.022030     -0.007679      0.003584
      4.06109      4.93479     10.26307        -0.002150     -0.011604     -0.001882
      5.19655      5.74869     10.23992        -0.010633      0.005533      0.011111
      5.03992      7.14844     10.22840         0.014947     -0.001711     -0.009123
      3.75307      7.70187     10.16404        -0.001035     -0.002029      0.014651
      2.61727      6.86511     10.21683         0.001224      0.022527     -0.010198
      6.30514      9.29881     10.33727        -0.000111      0.005672      0.002949
      7.85975     11.06176     10.57552         0.004963     -0.012331     -0.027177
      1.36236      7.43834     10.26131        -0.008344      0.005380      0.002551
      6.20424      7.92937     10.28577        -0.006036     -0.001106      0.001017
      4.18695      3.85029     10.29412         0.001960      0.003492      0.003281
      6.19415      5.30827     10.27812         0.008193     -0.004073      0.000330
      3.63243      8.78314     10.15908        -0.000508     -0.006574     -0.000594
      0.56462      6.86831      9.99472         0.006864     -0.002309      0.001138
      1.28176      8.41483      9.98985         0.009763     -0.011445      0.002305
      7.08620      7.42462     10.31822         0.007700     -0.009058      0.006738
      1.05396      4.74552     11.39290         0.013429     -0.003782     -0.028004
      1.83620      3.51096     10.35956         0.001720     -0.004212      0.005341
      0.80503      4.75429      9.63533        -0.028072      0.003172     -0.032038
      8.94508     11.18041     10.48893         0.010725     -0.001733      0.008998
      7.35026     11.59835      9.76029         0.009965     -0.004113      0.007326
      7.49403     11.43648     11.54117        -0.012753      0.005191      0.028938
 -----------------------------------------------------------------------------------
    total drift:                                0.036804     -0.082501      1.097921


--------------------------------------------------------------------------------------------------------



  FREE ENERGIE OF THE ION-ELECTRON SYSTEM (eV)
  ---------------------------------------------------
  free  energy   TOTEN  =      -534.00519583 eV

  energy  without entropy=     -533.98122998  energy(sigma->0) =     -533.99321291
 


--------------------------------------------------------------------------------------------------------


    POTLOK:  cpu time    0.1658: real time    0.1659


--------------------------------------------------------------------------------------------------------




--------------------------------------------------------------------------------------------------------


    WAVPRE:  cpu time    0.1122: real time    0.1221
    FEWALD:  cpu time    0.0049: real time    0.0049
    ORTHCH:  cpu time    7.8905: real time    7.8940
     LOOP+:  cpu time 1661.3292: real time 1665.0800


--------------------------------------- Iteration      2(   1)  ---------------------------------------


    POTLOK:  cpu time    0.1520: real time    0.1530
    SETDIJ:  cpu time    0.0136: real time    0.0136
     EDDAV:  cpu time   67.4087: real time   67.4504
       DOS:  cpu time    0.0025: real time    0.0025
    CHARGE:  cpu time    2.8643: real time    2.8658
    MIXING:  cpu time    0.0042: real time    0.0041
    --------------------------------------------
      LOOP:  cpu time   70.4453: real time   70.4895

 eigenvalue-minimisations  : 10176
 total energy-change (2. order) :-0.1591171E-03  (-0.8472667E-03)
 number of electron    1654.0000758 magnetization 
 augmentation part      760.3599544 magnetization 

 DIPCOR: dipole corrections for dipol
 direction  3 min pos   167,
 dipolmoment           0.000000      0.000000     -0.398899 electrons x Angstroem
 Tr[quadrupol]    -86610.331476

 energy correction for charged system         0.000000 eV
 dipol+quadrupol energy correction           -0.002528 eV
 added-field ion interaction         -8.048968 eV  (added to PSCEN)


  free energy =  -0.523103887695E+03  energy without entropy=  -0.523079922632E+03


--------------------------------------------------------------------------------------------------------




--------------------------------------- Iteration      2(   2)  ---------------------------------------


    POTLOK:  cpu time    0.1492: real time    0.1499
    SETDIJ:  cpu time    0.0137: real time    0.0137
    EDDIAG:  cpu time   13.2361: real time   13.2416
  RMM-DIIS:  cpu time   22.8553: real time   22.8728
    ORTHCH:  cpu time    4.4241: real time    4.4264
       DOS:  cpu time    0.0011: real time    0.0011
    CHARGE:  cpu time    2.8505: real time    2.8522
    MIXING:  cpu time    0.0044: real time    0.0044
    --------------------------------------------
      LOOP:  cpu time   43.5345: real time   43.5620

 eigenvalue-minimisations  :  7199
 total energy-change (2. order) :-0.7836003E-05  (-0.1408493E-04)
 number of electron    1654.0000758 magnetization 
 augmentation part      760.3599181 magnetization 

 DIPCOR: dipole corrections for dipol
 direction  3 min pos   167,
 dipolmoment           0.000000      0.000000     -0.399102 electrons x Angstroem
 Tr[quadrupol]    -86610.331231

 energy correction for charged system         0.000000 eV
 dipol+quadrupol energy correction           -0.002530 eV
 added-field ion interaction         -8.053065 eV  (added to PSCEN)


 eigenvalues of (default mixing * dielectric matrix)
  average eigenvalue GAMMA=   1.4785
  1.4785

  free energy =  -0.523103895531E+03  energy without entropy=  -0.523079933748E+03


--------------------------------------------------------------------------------------------------------




--------------------------------------- Iteration      2(   3)  ---------------------------------------


    POTLOK:  cpu time    0.1468: real time    0.1494
    SETDIJ:  cpu time    0.0137: real time    0.0137
    EDDIAG:  cpu time   13.0904: real time   13.1063
  RMM-DIIS:  cpu time   18.7468: real time   18.7570
    ORTHCH:  cpu time    6.5711: real time    6.5771
       DOS:  cpu time    0.0101: real time    0.0101
    CHARGE:  cpu time    2.9919: real time    2.9932
    MIXING:  cpu time    0.0184: real time    0.0184
    --------------------------------------------
      LOOP:  cpu time   41.5892: real time   41.6252

 eigenvalue-minimisations  :  5909
 total energy-change (2. order) :-0.1334440E-05  (-0.1248318E-05)
 number of electron    1654.0000758 magnetization 
 augmentation part      760.3599311 magnetization 

 DIPCOR: dipole corrections for dipol
 direction  3 min pos   167,
 dipolmoment           0.000000      0.000000     -0.397030 electrons x Angstroem
 Tr[quadrupol]    -86610.333726

 energy correction for charged system         0.000000 eV
 dipol+quadrupol energy correction           -0.002504 eV
 added-field ion interaction         -8.011245 eV  (added to PSCEN)


 eigenvalues of (default mixing * dielectric matrix)
  average eigenvalue GAMMA=   1.3606
  0.8667  1.8545

  free energy =  -0.523103896865E+03  energy without entropy=  -0.523079927795E+03


--------------------------------------------------------------------------------------------------------




--------------------------------------- Iteration      2(   4)  ---------------------------------------


    POTLOK:  cpu time    0.2654: real time    0.2657
    SETDIJ:  cpu time    0.0352: real time    0.0352
    EDDIAG:  cpu time   14.3102: real time   14.3193
  RMM-DIIS:  cpu time   17.9795: real time   18.0017
    ORTHCH:  cpu time    4.4417: real time    4.4442
       DOS:  cpu time    0.0011: real time    0.0011
    CHARGE:  cpu time    2.8538: real time    2.8553
    MIXING:  cpu time    0.0048: real time    0.0048
    --------------------------------------------
      LOOP:  cpu time   39.8917: real time   39.9272

 eigenvalue-minimisations  :  5682
 total energy-change (2. order) : 0.3534369E-06  (-0.5161726E-06)
 number of electron    1654.0000758 magnetization 
 augmentation part      760.3599066 magnetization 

 DIPCOR: dipole corrections for dipol
 direction  3 min pos   167,
 dipolmoment           0.000000      0.000000     -0.399761 electrons x Angstroem
 Tr[quadrupol]    -86610.330594

 energy correction for charged system         0.000000 eV
 dipol+quadrupol energy correction           -0.002539 eV
 added-field ion interaction         -8.066355 eV  (added to PSCEN)


 eigenvalues of (default mixing * dielectric matrix)
  average eigenvalue GAMMA=   1.1341
  2.1342  1.0117  0.2565

  free energy =  -0.523103896512E+03  energy without entropy=  -0.523079940193E+03


--------------------------------------------------------------------------------------------------------




--------------------------------------- Iteration      2(   5)  ---------------------------------------


    POTLOK:  cpu time    0.1491: real time    0.1494
    SETDIJ:  cpu time    0.0138: real time    0.0138
    EDDIAG:  cpu time   13.1625: real time   13.1695
  RMM-DIIS:  cpu time   16.3774: real time   16.4030
    ORTHCH:  cpu time    4.5071: real time    4.5090
       DOS:  cpu time    0.0011: real time    0.0011
    --------------------------------------------
      LOOP:  cpu time   34.2110: real time   34.2458

 eigenvalue-minimisations  :  4530
 total energy-change (2. order) : 0.1864886E-05  (-0.1262646E-06)
 number of electron    1654.0000758 magnetization 
 augmentation part      760.3599066 magnetization 

 DIPCOR: dipole corrections for dipol
 direction  3 min pos   167,
 dipolmoment           0.000000      0.000000     -0.398125 electrons x Angstroem
 Tr[quadrupol]    -86610.332823

 energy correction for charged system         0.000000 eV
 dipol+quadrupol energy correction           -0.002518 eV
 added-field ion interaction         -8.033349 eV  (added to PSCEN)


  free energy =  -0.523103894647E+03  energy without entropy=  -0.523079931810E+03


--------------------------------------------------------------------------------------------------------




------------------------ aborting loop because EDIFF is reached ----------------------------------------


    CHARGE:  cpu time    2.8712: real time    2.8728
    FORLOC:  cpu time    0.1207: real time    0.1207
    FORNL :  cpu time   10.5066: real time   10.5209
    STRESS:  cpu time   31.3850: real time   31.4089
    FORCOR:  cpu time    0.2237: real time    0.2242
    FORHAR:  cpu time    0.1469: real time    0.1470
    MIXING:  cpu time    0.0050: real time    0.0050
    OFIELD:  cpu time    0.0001: real time    0.0001

  Number of pair interactions contributing to vdW energy:  664659
  Edisp (eV):  -10.90145
    FORVDW:  cpu time    0.0885: real time    0.0885

  FORCE on cell =-STRESS in cart. coord.  units (eV):
  Direction    XX          YY          ZZ          XY          YZ          ZX
  --------------------------------------------------------------------------------------
  Alpha Z  3286.08781  3286.08781  3286.08781
  Ewald  473541.94994473428.62110************  1313.96194    11.65942   148.88373
  Hartree515624.69609515558.19722************  1198.90408    23.37128    94.22714
  E(xc)   -8631.68601 -8631.87288 -8660.51163     0.04437    -0.05674     0.23110
  Local  ************************************ -2521.68002   -37.33758  -234.10582
  n-local -1367.82164 -1366.57407 -1409.82388     2.82738     0.16183     0.17841
  augment 13250.37851 13250.54777 13304.46077     0.33954     0.13626    -0.44158
  Kinetic 20708.50599 20708.41283 20977.84610     5.67943     1.72502    -8.51238
  Fock        0.00000     0.00000     0.00000     0.00000     0.00000     0.00000
  vdW       -15.16782   -15.13314   -11.69917    -0.14692    -0.01876    -0.00231
  -------------------------------------------------------------------------------------
  Total       9.94011     9.68154    10.43056    -0.07019    -0.35928     0.45829
  in kB       2.76620     2.69424     2.90268    -0.01953    -0.09998     0.12753
  external pressure =        2.79 kB  Pullay stress =        0.00 kB



--------------------------------------------------------------------------------------------------------



  FREE ENERGIE OF THE ION-ELECTRON SYSTEM (eV)
  ---------------------------------------------------
  free  energy   TOTEN  =      -534.00534324 eV

  energy  without entropy=     -533.98138040  energy(sigma->0) =     -533.99336182
 
 d Force = 0.1325681E-03[ 0.339E-04, 0.231E-03]  d Energy = 0.1474076E-03-0.148E-04
 d Force = 0.1585895E+01[ 0.159E+01, 0.159E+01]  d Ewald  = 0.1585894E+01 0.382E-06


--------------------------------------------------------------------------------------------------------


    POTLOK:  cpu time    0.1668: real time    0.1674


--------------------------------------------------------------------------------------------------------


 Steepest descent step on ions:
 trial-energy change:   -0.000147  1 .order   -0.000133   -0.000231   -0.000034
  (g-gl).g = 0.231E-03      g.g   = 0.231E-03  gl.gl    = 0.000E+00
 g(Force)  = 0.231E-03   g(Stress)= 0.000E+00 ortho     = 0.000E+00
 gamma     =   0.00000
 trial     =   1.00000
 opt step  =   1.17200  (harmonic =   1.17200) maximal distance =0.00126143
 next E    =  -534.005331   (d E  =  -0.00014)


--------------------------------------------------------------------------------------------------------


  
 reached required accuracy - stopping structural energy minimisation
     LOOP+:  cpu time  275.2553: real time  275.4755
    4ORBIT:  cpu time    0.0000: real time    0.0000

 total amount of memory used by VASP MPI-rank0   363333. kBytes
=======================================================================

   base      :      30000. kBytes
   nonlr-proj:      53654. kBytes
   fftplans  :       9705. kBytes
   grid      :      52925. kBytes
   one-center:       2628. kBytes
   wavefun   :     214421. kBytes
 
  
  
 General timing and accounting informations for this job:
 ========================================================
  
                  Total CPU time used (sec):     1993.685
                            User time (sec):     1987.111
                          System time (sec):        6.573
                         Elapsed time (sec):     1998.087
  
                   Maximum memory used (kb):      781220.
                   Average memory used (kb):           0.
  
                          Minor page faults:       460033
                          Major page faults:            0
                 Voluntary context switches:         4484
