 vasp.5.4.4.18Apr17-6-g9f103f2a35 (build Jun 30 2017 19:19:18) complex          
  
 executed on         MareNostrum4 date 2022.04.19  22:26:15
 running on   48 total cores
 distrk:  each k-point on   48 cores,    1 groups
 distr:  one band on NCORES_PER_BAND=   1 cores,   48 groups


--------------------------------------------------------------------------------------------------------


 INCAR:
 POTCAR:    PAW_PBE Ru 04Feb2005                  
 POTCAR:    PAW_PBE C 08Apr2002                   
 POTCAR:    PAW_PBE H 15Jun2001                   
 POTCAR:    PAW_PBE O 08Apr2002                   

 ----------------------------------------------------------------------------- 
|                                                                             |
|           W    W    AA    RRRRR   N    N  II  N    N   GGGG   !!!           |
|           W    W   A  A   R    R  NN   N  II  NN   N  G    G  !!!           |
|           W    W  A    A  R    R  N N  N  II  N N  N  G       !!!           |
|           W WW W  AAAAAA  RRRRR   N  N N  II  N  N N  G  GGG   !            |
|           WW  WW  A    A  R   R   N   NN  II  N   NN  G    G                |
|           W    W  A    A  R    R  N    N  II  N    N   GGGG   !!!           |
|                                                                             |
|      For optimal performance we recommend to set                            |
|        NCORE= 4 - approx SQRT( number of cores)                             |
|      NCORE specifies how many cores store one orbital (NPAR=cpu/NCORE).     |
|      This setting can  greatly improve the performance of VASP for DFT.     |
|      The default,   NCORE=1            might be grossly inefficient         |
|      on modern multi-core architectures or massively parallel machines.     |
|      Do your own testing !!!!                                               |
|      Unfortunately you need to use the default for GW and RPA calculations. |
|      (for HF NCORE is supported but not extensively tested yet)             |
|                                                                             |
 ----------------------------------------------------------------------------- 

 POTCAR:    PAW_PBE Ru 04Feb2005                  
  local pseudopotential read in
  partial core-charges read in
  partial kinetic energy density read in
  atomic valenz-charges read in
  non local Contribution for L=           2  read in
    real space projection operators read in
  non local Contribution for L=           2  read in
    real space projection operators read in
  non local Contribution for L=           0  read in
    real space projection operators read in
  non local Contribution for L=           0  read in
    real space projection operators read in
  non local Contribution for L=           1  read in
    real space projection operators read in
  non local Contribution for L=           1  read in
    real space projection operators read in
    PAW grid and wavefunctions read in
 
   number of l-projection  operators is LMAX  =           6
   number of lm-projection operators is LMMAX =          18
 
 POTCAR:    PAW_PBE C 08Apr2002                   
  local pseudopotential read in
  partial core-charges read in
  partial kinetic energy density read in
  atomic valenz-charges read in
  non local Contribution for L=           0  read in
    real space projection operators read in
  non local Contribution for L=           0  read in
    real space projection operators read in
  non local Contribution for L=           1  read in
    real space projection operators read in
  non local Contribution for L=           1  read in
    real space projection operators read in
    PAW grid and wavefunctions read in
 
   number of l-projection  operators is LMAX  =           4
   number of lm-projection operators is LMMAX =           8
 
 POTCAR:    PAW_PBE H 15Jun2001                   
  local pseudopotential read in
  atomic valenz-charges read in
  non local Contribution for L=           0  read in
    real space projection operators read in
  non local Contribution for L=           0  read in
    real space projection operators read in
  non local Contribution for L=           1  read in
    real space projection operators read in
    PAW grid and wavefunctions read in
 
   number of l-projection  operators is LMAX  =           3
   number of lm-projection operators is LMMAX =           5
 
 POTCAR:    PAW_PBE O 08Apr2002                   
  local pseudopotential read in
  partial core-charges read in
  partial kinetic energy density read in
  kinetic energy density of atom read in
  atomic valenz-charges read in
  non local Contribution for L=           0  read in
    real space projection operators read in
  non local Contribution for L=           0  read in
    real space projection operators read in
  non local Contribution for L=           1  read in
    real space projection operators read in
  non local Contribution for L=           1  read in
    real space projection operators read in
    PAW grid and wavefunctions read in
 
   number of l-projection  operators is LMAX  =           4
   number of lm-projection operators is LMMAX =           8
 
 Optimization of the real space projectors (new method)

 maximal supplied QI-value         = 13.98
 optimisation between [QCUT,QGAM] = [ 10.77, 21.68] = [ 32.47,131.56] Ry 
 Optimized for a Real-space Cutoff    1.51 Angstroem

   l    n(q)    QCUT    max X(q) W(low)/X(q) W(high)/X(q)  e(spline) 
   2      9    10.768    61.733    0.26E-03    0.97E-04    0.28E-06
   2      9    10.768    59.886    0.26E-03    0.10E-03    0.29E-06
   0     10    10.768    23.358    0.12E-03    0.28E-03    0.38E-06
   0     10    10.768    11.320    0.93E-04    0.23E-03    0.31E-06
   1      9    10.768    14.765    0.48E-03    0.21E-03    0.19E-06
   1      9    10.768     8.283    0.36E-03    0.16E-03    0.15E-06
 Optimization of the real space projectors (new method)

 maximal supplied QI-value         = 25.13
 optimisation between [QCUT,QGAM] = [ 10.81, 21.61] = [ 32.71,130.83] Ry 
 Optimized for a Real-space Cutoff    1.23 Angstroem

   l    n(q)    QCUT    max X(q) W(low)/X(q) W(high)/X(q)  e(spline) 
   0      8    10.807   115.676    0.36E-03    0.72E-03    0.24E-06
   0      8    10.807    87.132    0.35E-03    0.71E-03    0.24E-06
   1      7    10.807     4.429    0.19E-03    0.39E-03    0.11E-06
   1      7    10.807     2.733    0.14E-03    0.28E-03    0.13E-06
 Optimization of the real space projectors (new method)

 maximal supplied QI-value         = 34.20
 optimisation between [QCUT,QGAM] = [ 10.60, 21.55] = [ 31.48,130.03] Ry 
 Optimized for a Real-space Cutoff    1.23 Angstroem

   l    n(q)    QCUT    max X(q) W(low)/X(q) W(high)/X(q)  e(spline) 
   0      8    10.603    19.460    0.37E-03    0.59E-03    0.23E-06
   0      8    10.603    12.209    0.35E-03    0.56E-03    0.22E-06
   1      7    10.603     4.655    0.70E-04    0.28E-03    0.29E-06
 Optimization of the real space projectors (new method)

 maximal supplied QI-value         = 24.76
 optimisation between [QCUT,QGAM] = [ 10.64, 21.54] = [ 31.73,129.89] Ry 
 Optimized for a Real-space Cutoff    1.23 Angstroem

   l    n(q)    QCUT    max X(q) W(low)/X(q) W(high)/X(q)  e(spline) 
   0      8    10.645    20.381    0.38E-03    0.60E-03    0.15E-06
   0      8    10.645    15.268    0.40E-03    0.65E-03    0.17E-06
   1      7    10.645     5.964    0.30E-03    0.63E-03    0.18E-06
   1      7    10.645     5.382    0.24E-03    0.53E-03    0.16E-06
  PAW_PBE Ru 04Feb2005                  :
 energy of atom  1       EATOM= -454.8837
 kinetic energy error for atom=    0.0028 (will be added to EATOM!!)
  PAW_PBE C 08Apr2002                   :
 energy of atom  2       EATOM= -147.1560
 kinetic energy error for atom=    0.0116 (will be added to EATOM!!)
  PAW_PBE H 15Jun2001                   :
 energy of atom  3       EATOM=  -12.4884
 kinetic energy error for atom=    0.0045 (will be added to EATOM!!)
  PAW_PBE O 08Apr2002                   :
 energy of atom  4       EATOM= -432.3788
 kinetic energy error for atom=    0.0389 (will be added to EATOM!!)
 
 
 POSCAR: Ru  C  H  O                             
  positions in cartesian coordinates
  No initial velocities read in
 exchange correlation table for  LEXCH =        8
   RHO(1)=    0.500       N(1)  =     2000
   RHO(2)=  100.500       N(2)  =     4000
 


--------------------------------------------------------------------------------------------------------


 ion  position               nearest neighbor table
   1  0.048  0.167  0.200-  85 2.33  90 2.34  30 2.66  53 2.66  29 2.66   4 2.71   2 2.71  28 2.71
                             6 2.71   5 2.71  25 2.71
   2  0.048  0.417  0.200-  89 2.18  31 2.66  54 2.66  30 2.66   1 2.71   3 2.71   7 2.71  25 2.71
                             6 2.71  26 2.71
   3  0.048  0.667  0.200-  32 2.66  55 2.66  31 2.66   4 2.71   2 2.71  26 2.71   8 2.71  27 2.71
                             7 2.71
   4  0.048  0.917  0.200-  29 2.66  56 2.66  32 2.66   3 2.71   1 2.71  27 2.71   5 2.71  28 2.71
                             8 2.71
   5  0.190  0.167  0.200-  86 2.41  34 2.66  29 2.66  33 2.66  10 2.71   8 2.71   6 2.71   4 2.71
                             9 2.71   1 2.71
   6  0.190  0.417  0.200-  87 2.15  88 2.31  92 2.63  35 2.66  30 2.66  34 2.66  11 2.71   7 2.71
                             5 2.71   1 2.71  10 2.71   2 2.71
   7  0.190  0.667  0.200-  36 2.66  31 2.66  35 2.66  12 2.71   6 2.71   8 2.71   2 2.71  11 2.71
                             3 2.71
   8  0.190  0.917  0.200-  33 2.66  32 2.66  36 2.66   9 2.71   5 2.71   7 2.71   3 2.71  12 2.71
                             4 2.71
   9  0.333  0.167  0.200-  38 2.66  33 2.66  37 2.66   8 2.71  12 2.71  10 2.71  14 2.71   5 2.71
                            13 2.71
  10  0.333  0.417  0.200-  93 2.20  92 2.40  39 2.66  34 2.66  38 2.66   5 2.71  11 2.71   9 2.71
                            15 2.71   6 2.71  14 2.71
  11  0.333  0.667  0.200-  40 2.66  35 2.66  39 2.66   6 2.71  12 2.71  10 2.71  16 2.71   7 2.71
                            15 2.71
  12  0.333  0.917  0.200-  37 2.66  36 2.66  40 2.66   7 2.71  11 2.71   9 2.71  13 2.71   8 2.71
                            16 2.71
  13  0.476  0.167  0.200-  42 2.66  37 2.66  41 2.66  18 2.71  14 2.71  16 2.71  12 2.71  17 2.71
                             9 2.71
  14  0.476  0.417  0.200-  43 2.66  38 2.66  42 2.66  19 2.71  13 2.71  15 2.71   9 2.71  18 2.71
                            10 2.71
  15  0.476  0.667  0.200- 109 2.28  44 2.66  39 2.66  43 2.66  20 2.71  16 2.71  14 2.71  10 2.71
                            19 2.71  11 2.71
  16  0.476  0.917  0.200-  41 2.66  40 2.66  44 2.66  17 2.71  13 2.71  15 2.71  11 2.71  20 2.71
                            12 2.71
  17  0.619  0.167  0.200-  46 2.66  41 2.66  45 2.66  16 2.71  20 2.71  18 2.71  22 2.71  13 2.71
                            21 2.71
  18  0.619  0.417  0.200-  47 2.66  42 2.66  46 2.66  13 2.71  19 2.71  17 2.71  23 2.71  14 2.71
                            22 2.71
  19  0.619  0.667  0.200-  48 2.66  43 2.66  47 2.66  14 2.71  20 2.71  18 2.71  24 2.71  15 2.71
                            23 2.71
  20  0.619  0.917  0.200-  45 2.66  44 2.66  48 2.66  15 2.71  19 2.71  17 2.71  21 2.71  16 2.71
                            24 2.71
  21  0.762  0.167  0.200-  50 2.66  45 2.66  49 2.66  26 2.71  22 2.71  24 2.71  20 2.71  25 2.71
                            17 2.71
  22  0.762  0.417  0.200-  51 2.66  46 2.66  50 2.66  27 2.71  21 2.71  23 2.71  17 2.71  26 2.71
                            18 2.71
  23  0.762  0.667  0.200-  52 2.66  47 2.66  51 2.66  28 2.71  22 2.71  24 2.71  18 2.71  27 2.71
                            19 2.71
  24  0.762  0.917  0.200-  49 2.66  48 2.66  52 2.66  25 2.71  21 2.71  23 2.71  19 2.71  28 2.71
                            20 2.71
  25  0.905  0.167  0.200- 107 2.53  54 2.66  49 2.66  53 2.66  24 2.71  26 2.71  28 2.71   2 2.71
                            21 2.71   1 2.71
  26  0.905  0.417  0.200-  55 2.66  50 2.66  54 2.66  21 2.71  27 2.71  25 2.71   3 2.71  22 2.71
                             2 2.71
  27  0.905  0.667  0.200-  56 2.66  51 2.66  55 2.66  22 2.71  28 2.71  26 2.71   4 2.71  23 2.71
                             3 2.71
  28  0.905  0.917  0.200-  53 2.66  52 2.66  56 2.66  23 2.71  27 2.71  25 2.71   1 2.71  24 2.71
                             4 2.71
  29  0.095  0.083  0.100-   4 2.66   5 2.66   1 2.66  60 2.66  61 2.66  57 2.66  56 2.71  30 2.71
                            32 2.71  34 2.71  53 2.71  33 2.71
  30  0.095  0.333  0.100-   1 2.66   6 2.66   2 2.66  57 2.66  62 2.66  58 2.66  53 2.71  29 2.71
                            31 2.71  35 2.71  54 2.71  34 2.71
  31  0.095  0.583  0.100-   2 2.66   7 2.66   3 2.66  58 2.66  63 2.66  59 2.66  54 2.71  30 2.71
                            32 2.71  36 2.71  55 2.71  35 2.71
  32  0.095  0.833  0.100-   3 2.66   8 2.66   4 2.66  59 2.66  64 2.66  60 2.66  55 2.71  29 2.71
                            31 2.71  33 2.71  56 2.71  36 2.71
  33  0.238  0.083  0.100-   8 2.66   9 2.66   5 2.66  64 2.66  65 2.66  61 2.66  38 2.71  34 2.71
                            36 2.71  32 2.71  37 2.71  29 2.71
  34  0.238  0.333  0.100-   5 2.66  10 2.66   6 2.66  61 2.66  66 2.66  62 2.66  39 2.71  33 2.71
                            35 2.71  29 2.71  38 2.71  30 2.71
  35  0.238  0.583  0.100-   6 2.66  11 2.66   7 2.66  62 2.66  67 2.66  63 2.66  40 2.71  34 2.71
                            36 2.71  30 2.71  39 2.71  31 2.71
  36  0.238  0.833  0.100-   7 2.66  12 2.66   8 2.66  63 2.66  68 2.66  64 2.66  37 2.71  33 2.71
                            35 2.71  31 2.71  40 2.71  32 2.71
  37  0.381  0.083  0.100-  12 2.66  13 2.66   9 2.66  68 2.66  69 2.66  65 2.66  36 2.71  40 2.71
                            38 2.71  42 2.71  33 2.71  41 2.71
  38  0.381  0.333  0.100-   9 2.66  14 2.66  10 2.66  65 2.66  70 2.66  66 2.66  33 2.71  39 2.71
                            37 2.71  43 2.71  34 2.71  42 2.71
  39  0.381  0.583  0.100-  10 2.66  15 2.66  11 2.66  66 2.66  71 2.66  67 2.66  34 2.71  40 2.71
                            38 2.71  44 2.71  35 2.71  43 2.71
  40  0.381  0.833  0.100-  11 2.66  16 2.66  12 2.66  67 2.66  72 2.66  68 2.66  35 2.71  39 2.71
                            37 2.71  41 2.71  36 2.71  44 2.71
  41  0.524  0.083  0.100-  16 2.66  17 2.66  13 2.66  72 2.66  73 2.66  69 2.66  46 2.71  42 2.71
                            44 2.71  40 2.71  45 2.71  37 2.71
  42  0.524  0.333  0.100-  13 2.66  18 2.66  14 2.66  69 2.66  74 2.66  70 2.66  47 2.71  41 2.71
                            43 2.71  37 2.71  46 2.71  38 2.71
  43  0.524  0.583  0.100-  14 2.66  19 2.66  15 2.66  70 2.66  75 2.66  71 2.66  48 2.71  42 2.71
                            44 2.71  38 2.71  47 2.71  39 2.71
  44  0.524  0.833  0.100-  15 2.66  20 2.66  16 2.66  71 2.66  76 2.66  72 2.66  45 2.71  41 2.71
                            43 2.71  39 2.71  48 2.71  40 2.71
  45  0.667  0.083  0.100-  20 2.66  21 2.66  17 2.66  76 2.66  77 2.66  73 2.66  44 2.71  48 2.71
                            46 2.71  50 2.71  41 2.71  49 2.71
  46  0.667  0.333  0.100-  17 2.66  22 2.66  18 2.66  73 2.66  78 2.66  74 2.66  41 2.71  47 2.71
                            45 2.71  51 2.71  42 2.71  50 2.71
  47  0.667  0.583  0.100-  18 2.66  23 2.66  19 2.66  74 2.66  79 2.66  75 2.66  42 2.71  48 2.71
                            46 2.71  52 2.71  43 2.71  51 2.71
  48  0.667  0.833  0.100-  19 2.66  24 2.66  20 2.66  75 2.66  80 2.66  76 2.66  43 2.71  47 2.71
                            45 2.71  49 2.71  44 2.71  52 2.71
  49  0.810  0.083  0.100-  24 2.66  25 2.66  21 2.66  80 2.66  81 2.66  77 2.66  52 2.71  50 2.71
                            54 2.71  48 2.71  45 2.71  53 2.71
  50  0.810  0.333  0.100-  21 2.66  26 2.66  22 2.66  77 2.66  82 2.66  78 2.66  51 2.71  49 2.71
                            55 2.71  45 2.71  46 2.71  54 2.71
  51  0.810  0.583  0.100-  22 2.66  27 2.66  23 2.66  78 2.66  83 2.66  79 2.66  52 2.71  50 2.71
                            56 2.71  46 2.71  47 2.71  55 2.71
  52  0.810  0.833  0.100-  23 2.66  28 2.66  24 2.66  79 2.66  84 2.66  80 2.66  51 2.71  49 2.71
                            53 2.71  47 2.71  56 2.71  48 2.71
  53  0.952  0.083  0.100-  28 2.66   1 2.66  25 2.66  84 2.66  57 2.66  81 2.66  30 2.71  56 2.71
                            54 2.71  52 2.71  29 2.71  49 2.71
  54  0.952  0.333  0.100-  25 2.66   2 2.66  26 2.66  81 2.66  58 2.66  82 2.66  31 2.71  55 2.71
                            53 2.71  49 2.71  30 2.71  50 2.71
  55  0.952  0.583  0.100-  26 2.66   3 2.66  27 2.66  82 2.66  59 2.66  83 2.66  32 2.71  56 2.71
                            54 2.71  50 2.71  31 2.71  51 2.71
  56  0.952  0.833  0.100-  27 2.66   4 2.66  28 2.66  83 2.66  60 2.66  84 2.66  29 2.71  55 2.71
                            53 2.71  51 2.71  32 2.71  52 2.71
  57  0.048  0.167  0.000-  30 2.66  53 2.66  29 2.66  58 2.71  60 2.71  62 2.71  84 2.71  81 2.71
                            61 2.71
  58  0.048  0.417  0.000-  31 2.66  54 2.66  30 2.66  57 2.71  59 2.71  63 2.71  81 2.71  62 2.71
                            82 2.71
  59  0.048  0.667  0.000-  32 2.66  55 2.66  31 2.66  58 2.71  60 2.71  64 2.71  82 2.71  63 2.71
                            83 2.71
  60  0.048  0.917  0.000-  29 2.66  56 2.66  32 2.66  57 2.71  59 2.71  61 2.71  83 2.71  64 2.71
                            84 2.71
  61  0.190  0.167  0.000-  34 2.66  29 2.66  33 2.66  66 2.71  64 2.71  62 2.71  60 2.71  65 2.71
                            57 2.71
  62  0.190  0.417  0.000-  35 2.66  30 2.66  34 2.66  67 2.71  63 2.71  61 2.71  57 2.71  66 2.71
                            58 2.71
  63  0.190  0.667  0.000-  36 2.66  31 2.66  35 2.66  68 2.71  64 2.71  62 2.71  58 2.71  67 2.71
                            59 2.71
  64  0.190  0.917  0.000-  33 2.66  32 2.66  36 2.66  65 2.71  63 2.71  61 2.71  59 2.71  68 2.71
                            60 2.71
  65  0.333  0.167  0.000-  38 2.66  33 2.66  37 2.66  64 2.71  66 2.71  68 2.71  70 2.71  61 2.71
                            69 2.71
  66  0.333  0.417  0.000-  39 2.66  34 2.66  38 2.66  61 2.71  65 2.71  67 2.71  71 2.71  62 2.71
                            70 2.71
  67  0.333  0.667  0.000-  40 2.66  35 2.66  39 2.66  62 2.71  66 2.71  68 2.71  72 2.71  63 2.71
                            71 2.71
  68  0.333  0.917  0.000-  37 2.66  36 2.66  40 2.66  63 2.71  65 2.71  67 2.71  69 2.71  64 2.71
                            72 2.71
  69  0.476  0.167  0.000-  42 2.66  37 2.66  41 2.66  74 2.71  72 2.71  70 2.71  68 2.71  73 2.71
                            65 2.71
  70  0.476  0.417  0.000-  43 2.66  38 2.66  42 2.66  75 2.71  71 2.71  69 2.71  65 2.71  74 2.71
                            66 2.71
  71  0.476  0.667  0.000-  44 2.66  39 2.66  43 2.66  76 2.71  72 2.71  70 2.71  66 2.71  75 2.71
                            67 2.71
  72  0.476  0.917  0.000-  41 2.66  40 2.66  44 2.66  73 2.71  71 2.71  69 2.71  67 2.71  76 2.71
                            68 2.71
  73  0.619  0.167  0.000-  46 2.66  41 2.66  45 2.66  72 2.71  74 2.71  76 2.71  78 2.71  69 2.71
                            77 2.71
  74  0.619  0.417  0.000-  47 2.66  42 2.66  46 2.66  69 2.71  73 2.71  75 2.71  79 2.71  70 2.71
                            78 2.71
  75  0.619  0.667  0.000-  48 2.66  43 2.66  47 2.66  70 2.71  74 2.71  76 2.71  80 2.71  71 2.71
                            79 2.71
  76  0.619  0.917  0.000-  45 2.66  44 2.66  48 2.66  71 2.71  73 2.71  75 2.71  77 2.71  72 2.71
                            80 2.71
  77  0.762  0.167  0.000-  50 2.66  45 2.66  49 2.66  82 2.71  80 2.71  78 2.71  76 2.71  81 2.71
                            73 2.71
  78  0.762  0.417  0.000-  51 2.66  46 2.66  50 2.66  83 2.71  79 2.71  77 2.71  73 2.71  82 2.71
                            74 2.71
  79  0.762  0.667  0.000-  52 2.66  47 2.66  51 2.66  84 2.71  80 2.71  78 2.71  74 2.71  83 2.71
                            75 2.71
  80  0.762  0.917  0.000-  49 2.66  48 2.66  52 2.66  81 2.71  79 2.71  77 2.71  75 2.71  84 2.71
                            76 2.71
  81  0.905  0.167  0.000-  54 2.66  49 2.66  53 2.66  80 2.71  82 2.71  84 2.71  58 2.71  77 2.71
                            57 2.71
  82  0.905  0.417  0.000-  55 2.66  50 2.66  54 2.66  77 2.71  81 2.71  83 2.71  59 2.71  78 2.71
                            58 2.71
  83  0.905  0.667  0.000-  56 2.66  51 2.66  55 2.66  78 2.71  82 2.71  84 2.71  60 2.71  79 2.71
                            59 2.71
  84  0.905  0.917  0.000-  53 2.66  52 2.66  56 2.66  79 2.71  81 2.71  83 2.71  57 2.71  80 2.71
                            60 2.71
  85  0.068  0.156  0.307- 108 1.38  90 1.43  86 1.47   1 2.33
  86  0.157  0.227  0.300-  95 1.09  85 1.47  87 1.48   5 2.41
  87  0.199  0.384  0.298-  88 1.44  92 1.46  86 1.48   6 2.15
  88  0.154  0.459  0.297-  96 1.10  87 1.44  89 1.46   6 2.31
  89  0.066  0.387  0.298-  97 1.09  88 1.46  90 1.46   2 2.18
  90  0.025  0.232  0.299- 107 1.40  85 1.43  89 1.46   1 2.34
  91  0.061  0.945  0.351- 100 1.10  99 1.10 101 1.11 108 1.43
  92  0.288  0.468  0.296- 102 1.11  93 1.43  87 1.46  10 2.40   6 2.63
  93  0.343  0.414  0.302- 103 1.10  92 1.43  94 1.51  10 2.20
  94  0.425  0.505  0.331- 104 1.11 105 1.11 109 1.46  93 1.51
  95  0.187  0.180  0.327-  86 1.09
  96  0.187  0.572  0.310-  88 1.10
  97  0.037  0.433  0.327-  89 1.09
  98  0.921  0.064  0.317- 107 0.99
  99  0.106  0.996  0.389-  91 1.10
 100  0.012  0.840  0.366-  91 1.10
 101  0.092  0.932  0.310-  91 1.11
 102  0.313  0.583  0.305-  92 1.11
 103  0.316  0.303  0.316-  93 1.10
 104  0.421  0.514  0.382-  94 1.11
 105  0.464  0.458  0.321-  94 1.11
 106  0.520  0.703  0.319- 109 0.98
 107  0.943  0.167  0.314-  98 0.99  90 1.40  25 2.53
 108  0.023  0.027  0.337-  85 1.38  91 1.43
 109  0.463  0.649  0.306- 106 0.98  94 1.46  15 2.28
 
  Warning from LATTYP: Monoclinic adjustement (A1->A3, A2->A1, A3->A2)!
  Warning from LATTYP: Got some problem with cell dimensions!
  Tried to take original basis but could not verify dimensions!
  LATTYP: Found a simple monoclinic cell.
 ALAT       =    20.4796808342
 B/A-ratio  =     1.0467134775
 C/A-ratio  =     1.7371079010
 COS(beta)  =    -0.9695485959
  
  Lattice vectors:
  
 A1 = (  -8.1377999784, -18.7934440320,   0.0000000000)
 A2 = (   0.0000000000,   0.0000000000, -21.4363579450)
 A3 = (  21.7007999424,  28.1901660480,   0.0000000000)


Analysis of symmetry for initial positions (statically):
=====================================================================
 Subroutine PRICEL returns:
 Original cell was already a primitive cell.
 

 Routine SETGRP: Setting up the symmetry group for a 
 simple monoclinic supercell.


 Subroutine GETGRP returns: Found  1 space group operations
 (whereof  1 operations were pure point group operations)
 out of a pool of  4 trial point group operations.


The static configuration has the point symmetry C_1 .


Analysis of symmetry for dynamics (positions and initial velocities):
=====================================================================
 Subroutine PRICEL returns:
 Original cell was already a primitive cell.
 

 Routine SETGRP: Setting up the symmetry group for a 
 simple monoclinic supercell.


 Subroutine GETGRP returns: Found  1 space group operations
 (whereof  1 operations were pure point group operations)
 out of a pool of  4 trial point group operations.


The dynamic configuration has the point symmetry C_1 .


Analysis of constrained symmetry for selective dynamics:
=====================================================================
 Subroutine PRICEL returns:
 Original cell was already a primitive cell.
 

 Routine SETGRP: Setting up the symmetry group for a 
 simple monoclinic supercell.


 Subroutine GETGRP returns: Found  1 space group operations
 (whereof  1 operations were pure point group operations)
 out of a pool of  4 trial point group operations.


The constrained configuration has the point symmetry C_1 .


 Subroutine INISYM returns: Found  1 space group operations
 (whereof  1 operations are pure point group operations),
 and found     1 'primitive' translations

 
 
 KPOINTS: K-POINTS                                

Automatic generation of k-mesh.
Space group operators:
 irot       det(A)        alpha          n_x          n_y          n_z        tau_x        tau_y        tau_z
    1     1.000000     0.000000     1.000000     0.000000     0.000000     0.000000     0.000000     0.000000
 
 Subroutine IBZKPT returns following result:
 ===========================================
 
 Found      5 irreducible k-points:
 
 Following reciprocal coordinates:
            Coordinates               Weight
  0.000000  0.000000  0.000000      1.000000
  0.333333  0.000000  0.000000      2.000000
  0.000000  0.333333  0.000000      2.000000
  0.333333  0.333333  0.000000      2.000000
 -0.333333  0.333333  0.000000      2.000000
 
 Following cartesian coordinates:
            Coordinates               Weight
  0.000000  0.000000  0.000000      1.000000
  0.017555  0.010135  0.000000      2.000000
  0.000000  0.035473  0.000000      2.000000
  0.017555  0.045609  0.000000      2.000000
 -0.017555  0.025338  0.000000      2.000000
 


--------------------------------------------------------------------------------------------------------




 Dimension of arrays:
   k-points           NKPTS =      5   k-points in BZ     NKDIM =      5   number of bands    NBANDS=    480
   number of dos      NEDOS =    301   number of ions     NIONS =    109
   non local maximal  LDIM  =      6   non local SUM 2l+1 LMDIM =     18
   total plane-waves  NPLWV = 627200
   max r-space proj   IRMAX =   2409   max aug-charges    IRDMAX=  11289
   dimension x,y,z NGX =   100 NGY =   56 NGZ =  112
   dimension x,y,z NGXF=   200 NGYF=  112 NGZF=  224
   support grid    NGXF=   200 NGYF=  112 NGZF=  224
   ions per type =              84  10  12   3
   NGX,Y,Z   is equivalent  to a cutoff of   8.76,  8.58,  8.69 a.u.
   NGXF,Y,Z  is equivalent  to a cutoff of  17.51, 17.16, 17.37 a.u.

 SYSTEM =  x                                       
 POSCAR =  Ru  C  H  O                             

 Startparameter for this run:
   NWRITE =      0    write-flag & timer
   PREC   = normal    normal or accurate (medium, high low for compatibility)
   ISTART =      0    job   : 0-new  1-cont  2-samecut
   ICHARG =      2    charge: 1-file 2-atom 10-const
   ISPIN  =      1    spin polarized calculation?
   LNONCOLLINEAR =      F non collinear calculations
   LSORBIT =      F    spin-orbit coupling
   INIWAV =      1    electr: 0-lowe 1-rand  2-diag
   LASPH  =      F    aspherical Exc in radial PAW
   METAGGA=      F    non-selfconsistent MetaGGA calc.

 Electronic Relaxation 1
   ENCUT  =  450.0 eV  33.07 Ry    5.75 a.u.  32.84 18.77 37.08*2*pi/ulx,y,z
   ENINI  =  450.0     initial cutoff
   ENAUG  =  644.9 eV  augmentation charge cutoff
   NELM   =     50;   NELMIN=  5; NELMDL= -7     # of ELM steps 
   EDIFF  = 0.1E-04   stopping-criterion for ELM
   LREAL  =      T    real-space projection
   NLSPLINE    = F    spline interpolate recip. space projectors
   LCOMPAT=      F    compatible to vasp.4.4
   GGA_COMPAT  = T    GGA compatible to vasp.4.4-vasp.4.6
   LMAXPAW     = -100 max onsite density
   LMAXMIX     =    2 max onsite mixed and CHGCAR
   VOSKOWN=      0    Vosko Wilk Nusair interpolation
   ROPT   =   -0.00050  -0.00050  -0.00050  -0.00050
 Ionic relaxation
   EDIFFG = -.2E-01   stopping-criterion for IOM
   NSW    =    300    number of steps for IOM
   NBLOCK =      1;   KBLOCK =    300    inner block; outer block 
   IBRION =      2    ionic relax: 0-MD 1-quasi-New 2-CG
   NFREE  =      2    steps in history (QN), initial steepest desc. (CG)
   ISIF   =      2    stress and relaxation
   IWAVPR =     11    prediction:  0-non 1-charg 2-wave 3-comb
   ISYM   =      2    0-nonsym 1-usesym 2-fastsym
   LCORR  =      T    Harris-Foulkes like correction to forces

   POTIM  = 0.1500    time-step for ionic-motion
   TEIN   =    0.0    initial temperature
   TEBEG  =    0.0;   TEEND  =   0.0 temperature during run
   SMASS  =  -3.00    Nose mass-parameter (am)
   estimated Nose-frequenzy (Omega)   =  0.10E-29 period in steps =****** mass=  -0.824E-26a.u.
   SCALEE = 1.0000    scale energy and forces
   NPACO  =    256;   APACO  = 16.0  distance and # of slots for P.C.
   PSTRESS=    0.0 pullay stress

  Mass of Ions in am
   POMASS = 101.07 12.01  1.00 16.00
  Ionic Valenz
   ZVAL   =   8.00  4.00  1.00  6.00
  Atomic Wigner-Seitz radii
   RWIGS  =  -1.00 -1.00 -1.00 -1.00
  virtual crystal weights 
   VCA    =   1.00  1.00  1.00  1.00
   NELECT =     742.0000    total number of electrons
   NUPDOWN=      -1.0000    fix difference up-down

 DOS related values:
   EMIN   =  10.00;   EMAX   =-10.00  energy-range for DOS
   EFERMI =   0.00
   ISMEAR =     0;   SIGMA  =   0.03  broadening in eV -4-tet -1-fermi 0-gaus

 Electronic relaxation 2 (details)
   IALGO  =     68    algorithm
   LDIAG  =      T    sub-space diagonalisation (order eigenvalues)
   LSUBROT=      F    optimize rotation matrix (better conditioning)
   TURBO    =      0    0=normal 1=particle mesh
   IRESTART =      0    0=no restart 2=restart with 2 vectors
   NREBOOT  =      0    no. of reboots
   NMIN     =      0    reboot dimension
   EREF     =   0.00    reference energy to select bands
   IMIX   =      4    mixing-type and parameters
     AMIX     =   0.40;   BMIX     =  1.00
     AMIX_MAG =   1.60;   BMIX_MAG =  1.00
     AMIN     =   0.10
     WC   =   100.;   INIMIX=   1;  MIXPRE=   1;  MAXMIX= -45

 Intra band minimization:
   WEIMIN = 0.0010     energy-eigenvalue tresh-hold
   EBREAK =  0.52E-08  absolut break condition
   DEPER  =   0.30     relativ break condition  

   TIME   =   0.40     timestep for ELM

  volume/ion in A,a.u.               =      35.09       236.80
  Fermi-wavevector in a.u.,A,eV,Ry     =   0.947703  1.790900 12.219958  0.898142
  Thomas-Fermi vector in A             =   2.075822
 
 Write flags
   LWAVE        =      F    write WAVECAR
   LDOWNSAMPLE  =      F    k-point downsampling of WAVECAR
   LCHARG       =      F    write CHGCAR
   LVTOT        =      F    write LOCPOT, total local potential
   LVHAR        =      F    write LOCPOT, Hartree potential only
   LELF         =      F    write electronic localiz. function (ELF)
   LORBIT       =      0    0 simple, 1 ext, 2 COOP (PROOUT), +10 PAW based schemes


 Dipole corrections
   LMONO  =      F    monopole corrections only (constant potential shift)
   LDIPOL =      T    correct potential (dipole corrections)
   IDIPOL =      3    1-x, 2-y, 3-z, 4-all directions 
   EPSILON=  1.0000000 bulk dielectric constant

 Exchange correlation treatment:
   GGA     =    PE    GGA type
   LEXCH   =     8    internal setting for exchange type
   VOSKOWN=      0    Vosko Wilk Nusair interpolation
   LHFCALC =     F    Hartree Fock is set to
   LHFONE  =     F    Hartree Fock one center treatment
   AEXX    =    0.0000 exact exchange contribution

 Linear response parameters
   LEPSILON=     F    determine dielectric tensor
   LRPA    =     F    only Hartree local field effects (RPA)
   LNABLA  =     F    use nabla operator in PAW spheres
   LVEL    =     F    velocity operator in full k-point grid
   LINTERFAST=   F  fast interpolation
   KINTER  =     0    interpolate to denser k-point grid
   CSHIFT  =0.1000    complex shift for real part using Kramers Kronig
   OMEGAMAX=  -1.0    maximum frequency
   DEG_THRESHOLD= 0.2000000E-02 threshold for treating states as degnerate
   RTIME   =   -0.100 relaxation time in fs
  (WPLASMAI=    0.000 imaginary part of plasma frequency in eV, 0.658/RTIME)
   DFIELD  = 0.0000000 0.0000000 0.0000000 field for delta impulse in time
 
 Orbital magnetization related:
   ORBITALMAG=     F  switch on orbital magnetization
   LCHIMAG   =     F  perturbation theory with respect to B field
   DQ        =  0.001000  dq finite difference perturbation B field
   LLRAUG    =     F  two centre corrections for induced B field



--------------------------------------------------------------------------------------------------------


 conjugate gradient relaxation of ions
   using selective dynamics as specified on POSCAR
   WARNING: If single coordinates had been selected the selection of coordinates
            is made according to the corresponding   d i r e c t   coordinates!
            Don't support selection of single cartesian coordinates -- sorry ...
  !
 charge density and potential will be updated during run
 non-spin polarized calculation
 RMM-DIIS sequential band-by-band and
  variant of blocked Davidson during initial phase
 perform sub-space diagonalisation
    before iterative eigenvector-optimisation
 modified Broyden-mixing scheme, WC =      100.0
 initial mixing is a Kerker type mixing with AMIX =  0.4000 and BMIX =      1.0000
 Hartree-type preconditioning will be used
 using additional bands          109
 real space projection scheme for non local part
 use partial core corrections
 calculate Harris-corrections to forces 
   (improved forces if not selfconsistent)
 use gradient corrections 
 use of overlap-Matrix (Vanderbilt PP)
 Gauss-broadening in eV      SIGMA  =   0.03


--------------------------------------------------------------------------------------------------------


  energy-cutoff  :      450.00
  volume of cell :     3824.82
      direct lattice vectors                 reciprocal lattice vectors
    18.988199950  0.000000000  0.000000000     0.052664286  0.030405740  0.000000000
    -5.425199986  9.396722016  0.000000000     0.000000000  0.106420090  0.000000000
     0.000000000  0.000000000 21.436357945     0.000000000  0.000000000  0.046649716

  length of vectors
    18.988199950 10.850399971 21.436357945     0.060811480  0.106420090  0.046649716


 
 k-points in units of 2pi/SCALE and weight: K-POINTS                                
   0.00000000  0.00000000  0.00000000       0.111
   0.01755476  0.01013525  0.00000000       0.222
   0.00000000  0.03547336  0.00000000       0.222
   0.01755476  0.04560861  0.00000000       0.222
  -0.01755476  0.02533812  0.00000000       0.222
 
 k-points in reciprocal lattice and weights: K-POINTS                                
   0.00000000  0.00000000  0.00000000       0.111
   0.33333333  0.00000000  0.00000000       0.222
   0.00000000  0.33333333  0.00000000       0.222
   0.33333333  0.33333333  0.00000000       0.222
  -0.33333333  0.33333333  0.00000000       0.222
 
 position of ions in fractional coordinates (direct lattice) 
   0.04761857  0.16666751  0.20017397
   0.04761857  0.41666751  0.20017397
   0.04761857  0.66666751  0.20017397
   0.04761857  0.91666751  0.20017397
   0.19047572  0.16666751  0.20017397
   0.19047572  0.41666751  0.20017397
   0.19047572  0.66666751  0.20017397
   0.19047572  0.91666751  0.20017397
   0.33333286  0.16666751  0.20017397
   0.33333286  0.41666751  0.20017397
   0.33333286  0.66666751  0.20017397
   0.33333286  0.91666751  0.20017397
   0.47619000  0.16666751  0.20017397
   0.47619000  0.41666751  0.20017397
   0.47619000  0.66666751  0.20017397
   0.47619000  0.91666751  0.20017397
   0.61904714  0.16666751  0.20017397
   0.61904714  0.41666751  0.20017397
   0.61904714  0.66666751  0.20017397
   0.61904714  0.91666751  0.20017397
   0.76190429  0.16666751  0.20017397
   0.76190429  0.41666751  0.20017397
   0.76190429  0.66666751  0.20017397
   0.76190429  0.91666751  0.20017397
   0.90476143  0.16666751  0.20017397
   0.90476143  0.41666751  0.20017397
   0.90476143  0.66666751  0.20017397
   0.90476143  0.91666751  0.20017397
   0.09523857  0.08333250  0.10009367
   0.09523857  0.33333250  0.10009367
   0.09523857  0.58333250  0.10009367
   0.09523857  0.83333250  0.10009367
   0.23809572  0.08333250  0.10009367
   0.23809572  0.33333250  0.10009367
   0.23809572  0.58333250  0.10009367
   0.23809572  0.83333250  0.10009367
   0.38095286  0.08333250  0.10009367
   0.38095286  0.33333250  0.10009367
   0.38095286  0.58333250  0.10009367
   0.38095286  0.83333250  0.10009367
   0.52381000  0.08333250  0.10009367
   0.52381000  0.33333250  0.10009367
   0.52381000  0.58333250  0.10009367
   0.52381000  0.83333250  0.10009367
   0.66666715  0.08333250  0.10009367
   0.66666715  0.33333250  0.10009367
   0.66666715  0.58333250  0.10009367
   0.66666715  0.83333250  0.10009367
   0.80952429  0.08333250  0.10009367
   0.80952429  0.33333250  0.10009367
   0.80952429  0.58333250  0.10009367
   0.80952429  0.83333250  0.10009367
   0.95238143  0.08333250  0.10009367
   0.95238143  0.33333250  0.10009367
   0.95238143  0.58333250  0.10009367
   0.95238143  0.83333250  0.10009367
   0.04761857  0.16666751  0.00000002
   0.04761857  0.41666751  0.00000002
   0.04761857  0.66666751  0.00000002
   0.04761857  0.91666751  0.00000002
   0.19047572  0.16666751  0.00000002
   0.19047572  0.41666751  0.00000002
   0.19047572  0.66666751  0.00000002
   0.19047572  0.91666751  0.00000002
   0.33333286  0.16666751  0.00000002
   0.33333286  0.41666751  0.00000002
   0.33333286  0.66666751  0.00000002
   0.33333286  0.91666751  0.00000002
   0.47619000  0.16666751  0.00000002
   0.47619000  0.41666751  0.00000002
   0.47619000  0.66666751  0.00000002
   0.47619000  0.91666751  0.00000002
   0.61904714  0.16666751  0.00000002
   0.61904714  0.41666751  0.00000002
   0.61904714  0.66666751  0.00000002
   0.61904714  0.91666751  0.00000002
   0.76190429  0.16666751  0.00000002
   0.76190429  0.41666751  0.00000002
   0.76190429  0.66666751  0.00000002
   0.76190429  0.91666751  0.00000002
   0.90476143  0.16666751  0.00000002
   0.90476143  0.41666751  0.00000002
   0.90476143  0.66666751  0.00000002
   0.90476143  0.91666751  0.00000002
   0.06825019  0.15577419  0.30678606
   0.15680910  0.22650435  0.30002168
   0.19891805  0.38350310  0.29827437
   0.15412045  0.45884499  0.29716929
   0.06555017  0.38701275  0.29820776
   0.02526984  0.23183030  0.29892056
   0.06071138  0.94504250  0.35138625
   0.28777300  0.46798253  0.29614714
   0.34254892  0.41424506  0.30237165
   0.42528100  0.50531845  0.33106408
   0.18670051  0.17966618  0.32682504
   0.18734462  0.57168461  0.31048704
   0.03670505  0.43326884  0.32655823
   0.92107024  0.06364557  0.31729921
   0.10556695  0.99599578  0.38916975
   0.01151872  0.84045332  0.36612459
   0.09164689  0.93234768  0.30978695
   0.31310143  0.58280057  0.30537004
   0.31641387  0.30252883  0.31599014
   0.42086389  0.51442664  0.38219411
   0.46431714  0.45840688  0.32143066
   0.51988513  0.70279538  0.31941169
   0.94271354  0.16696535  0.31355161
   0.02289828  0.02738522  0.33693777
   0.46309475  0.64900647  0.30579723
 
 position of ions in cartesian coordinates  (Angst):
  -0.00001358  1.56612822  4.29100095
  -1.35631358  3.91530873  4.29100095
  -2.71261357  6.26448923  4.29100095
  -4.06891357  8.61366974  4.29100095
   2.71258641  1.56612822  4.29100095
   1.35628642  3.91530873  4.29100095
  -0.00001358  6.26448923  4.29100095
  -1.35631358  8.61366974  4.29100095
   5.42518640  1.56612822  4.29100095
   4.06888641  3.91530873  4.29100095
   2.71258641  6.26448923  4.29100095
   1.35628642  8.61366974  4.29100095
   8.13778640  1.56612822  4.29100095
   6.78148640  3.91530873  4.29100095
   5.42518640  6.26448923  4.29100095
   4.06888641  8.61366974  4.29100095
  10.85038639  1.56612822  4.29100095
   9.49408639  3.91530873  4.29100095
   8.13778640  6.26448923  4.29100095
   6.78148640  8.61366974  4.29100095
  13.56298638  1.56612822  4.29100095
  12.20668639  3.91530873  4.29100095
  10.85038639  6.26448923  4.29100095
   9.49408639  8.61366974  4.29100095
  16.27558638  1.56612822  4.29100095
  14.91928638  3.91530873  4.29100095
  13.56298638  6.26448923  4.29100095
  12.20668639  8.61366974  4.29100095
   1.35631362  0.78305235  2.14564370
   0.00001362  3.13223285  2.14564370
  -1.35628637  5.48141336  2.14564370
  -2.71258637  7.83059386  2.14564370
   4.06891361  0.78305235  2.14564370
   2.71261361  3.13223285  2.14564370
   1.35631362  5.48141336  2.14564370
   0.00001362  7.83059386  2.14564370
   6.78151360  0.78305235  2.14564370
   5.42521361  3.13223285  2.14564370
   4.06891361  5.48141336  2.14564370
   2.71261361  7.83059386  2.14564370
   9.49411360  0.78305235  2.14564370
   8.13781360  3.13223285  2.14564370
   6.78151360  5.48141336  2.14564370
   5.42521361  7.83059386  2.14564370
  12.20671359  0.78305235  2.14564370
  10.85041359  3.13223285  2.14564370
   9.49411360  5.48141336  2.14564370
   8.13781360  7.83059386  2.14564370
  14.91931358  0.78305235  2.14564370
  13.56301359  3.13223285  2.14564370
  12.20671359  5.48141336  2.14564370
  10.85041359  7.83059386  2.14564370
  17.63191357  0.78305235  2.14564370
  16.27561358  3.13223285  2.14564370
  14.91931358  5.48141336  2.14564370
  13.56301359  7.83059386  2.14564370
  -0.00001358  1.56612822  0.00000046
  -1.35631358  3.91530873  0.00000046
  -2.71261357  6.26448923  0.00000046
  -4.06891357  8.61366974  0.00000046
   2.71258641  1.56612822  0.00000046
   1.35628642  3.91530873  0.00000046
  -0.00001358  6.26448923  0.00000046
  -1.35631358  8.61366974  0.00000046
   5.42518640  1.56612822  0.00000046
   4.06888641  3.91530873  0.00000046
   2.71258641  6.26448923  0.00000046
   1.35628642  8.61366974  0.00000046
   8.13778640  1.56612822  0.00000046
   6.78148640  3.91530873  0.00000046
   5.42518640  6.26448923  0.00000046
   4.06888641  8.61366974  0.00000046
  10.85038639  1.56612822  0.00000046
   9.49408639  3.91530873  0.00000046
   8.13778640  6.26448923  0.00000046
   6.78148640  8.61366974  0.00000046
  13.56298638  1.56612822  0.00000046
  12.20668639  3.91530873  0.00000046
  10.85038639  6.26448923  0.00000046
   9.49408639  8.61366974  0.00000046
  16.27558638  1.56612822  0.00000046
  14.91928638  3.91530873  0.00000046
  13.56298638  6.26448923  0.00000046
  12.20668639  8.61366974  0.00000046
   0.45084212  1.46376680  6.57637580
   1.74869125  2.12839839  6.43137223
   1.69651466  3.60367203  6.39391609
   0.43714411  4.31163883  6.37022724
  -0.85494183  3.63665119  6.39248825
  -0.77789685  2.17844484  6.40776817
  -3.97424483  8.88030170  7.53244141
   2.92539249  4.39750173  6.34831611
   4.25702507  3.89254563  6.48174694
   5.33386698  4.74833701  7.09680805
   2.57038173  1.68827313  7.00593845
   0.45583374  5.37196138  6.65571143
  -1.65360726  4.07130685  7.00021903
  17.14417587  0.59805972  6.80173936
  -3.39894990  9.35909544  8.34238196
  -4.34090758  7.89750624  7.84837775
  -3.31796317  8.76101197  6.64070394
   2.78342287  5.47641495  6.54602152
   4.36685048  2.84277929  6.77367770
   5.20058025  4.83392413  8.19284971
   6.32959777  4.30752206  6.89030264
   6.05887729  6.60397278  6.84702324
  16.99461274  1.56892700  6.72140453
   0.28622688  0.25733131  7.22271860
   5.27234574  6.09853337  6.55517887
 


--------------------------------------------------------------------------------------------------------


 k-point  1 :   0.0000 0.0000 0.0000  plane waves:   82945
 k-point  2 :   0.3333 0.0000 0.0000  plane waves:   82944
 k-point  3 :   0.0000 0.3333 0.0000  plane waves:   82913
 k-point  4 :   0.3333 0.3333 0.0000  plane waves:   82924
 k-point  5 :  -0.3333 0.3333 0.0000  plane waves:   82907

 maximum and minimum number of plane-waves per node :     82945    82907

 maximum number of plane-waves:     82945
 maximum index in each direction: 
   IXMAX=   33   IYMAX=   18   IZMAX=   37
   IXMIN=  -33   IYMIN=  -19   IZMIN=  -37


 serial   3D FFT for wavefunctions
 parallel 3D FFT for charge:
    minimum data exchange during FFTs selected (reduces bandwidth)


 total amount of memory used by VASP MPI-rank0   177037. kBytes
=======================================================================

   base      :      30000. kBytes
   nonlr-proj:      36691. kBytes
   fftplans  :       6642. kBytes
   grid      :      34272. kBytes
   one-center:       1695. kBytes
   wavefun   :      67737. kBytes
 
     INWAV:  cpu time    0.0000: real time    0.0003
 Broyden mixing: mesh for mixing (old mesh)
   NGX = 65   NGY = 37   NGZ = 75
  (NGX  =200   NGY  =112   NGZ  =224)
  gives a total of 180375 points

 initial charge density was supplied:
 charge density of overlapping atoms calculated
 number of electron     742.0000000 magnetization 
 keeping initial charge density in first step


--------------------------------------------------------------------------------------------------------


 Maximum index for non-local projection operator         2304
 Maximum index for augmentation-charges          841 (set IRDMAX)


--------------------------------------------------------------------------------------------------------


 First call to EWALD:  gamma=   0.113
 Maximum number of real-space cells 3x 4x 2
 Maximum number of reciprocal cells 3x 2x 4

    FEWALD:  cpu time    0.0039: real time    0.0039


--------------------------------------- Iteration      1(   1)  ---------------------------------------


    POTLOK:  cpu time    0.1051: real time    0.1213
    SETDIJ:  cpu time    0.0106: real time    0.0226
     EDDAV:  cpu time   18.5238: real time   18.5712
       DOS:  cpu time    0.0029: real time    0.0057
    --------------------------------------------
      LOOP:  cpu time   18.6424: real time   18.7208

 eigenvalue-minimisations  :  4800
 total energy-change (2. order) : 0.4361085E+04  (-0.2898809E+05)
 number of electron     742.0000000 magnetization 
 augmentation part      742.0000000 magnetization 

 DIPCOR: dipole corrections for dipol
 direction  3 min pos   142,
 dipolmoment           0.000000      0.000000     -0.000839 electrons x Angstroem
 Tr[quadrupol]    -28843.592535

 energy correction for charged system         0.000000 eV
 dipol+quadrupol energy correction           -0.000000 eV
 added-field ion interaction         -0.005802 eV  (added to PSCEN)


 Free energy of the ion-electron system (eV)
  ---------------------------------------------------
  alpha Z        PSCENC =       993.57815012
  Ewald energy   TEWEN  =    171259.37191297
  -Hartree energ DENC   =   -213282.97708934
  -exchange      EXHF   =         0.00000000
  -V(xc)+E(xc)   XCENC  =     -2471.00032542
  PAW double counting   =     41014.26089608   -36931.58325599
  entropy T*S    EENTRO =        -0.02186831
  eigenvalues    EBANDS =      2651.19262146
  atomic energy  EATOM  =     41128.26432592
  Solvation  Ediel_sol  =         0.00000000
  ---------------------------------------------------
  free energy    TOTEN  =      4361.08536750 eV

  energy without entropy =     4361.10723581  energy(sigma->0) =     4361.09630166


--------------------------------------------------------------------------------------------------------




--------------------------------------- Iteration      1(   2)  ---------------------------------------


     EDDAV:  cpu time   19.9222: real time   19.9280
       DOS:  cpu time    0.0019: real time    0.0019
    --------------------------------------------
      LOOP:  cpu time   19.9241: real time   19.9299

 eigenvalue-minimisations  :  5280
 total energy-change (2. order) :-0.4848651E+04  (-0.4512156E+04)
 number of electron     742.0000000 magnetization 
 augmentation part      742.0000000 magnetization 

 DIPCOR: dipole corrections for dipol
 direction  3 min pos   142,
 dipolmoment           0.000000      0.000000     -0.000839 electrons x Angstroem
 Tr[quadrupol]    -28843.592535

 energy correction for charged system         0.000000 eV
 dipol+quadrupol energy correction           -0.000000 eV
 added-field ion interaction         -0.005802 eV  (added to PSCEN)


 Free energy of the ion-electron system (eV)
  ---------------------------------------------------
  alpha Z        PSCENC =       993.57815012
  Ewald energy   TEWEN  =    171259.37191297
  -Hartree energ DENC   =   -213282.97708934
  -exchange      EXHF   =         0.00000000
  -V(xc)+E(xc)   XCENC  =     -2471.00032542
  PAW double counting   =     41014.26089608   -36931.58325599
  entropy T*S    EENTRO =        -0.03263973
  eigenvalues    EBANDS =     -2197.44795643
  atomic energy  EATOM  =     41128.26432592
  Solvation  Ediel_sol  =         0.00000000
  ---------------------------------------------------
  free energy    TOTEN  =      -487.56598181 eV

  energy without entropy =     -487.53334207  energy(sigma->0) =     -487.54966194


--------------------------------------------------------------------------------------------------------




--------------------------------------- Iteration      1(   3)  ---------------------------------------


     EDDAV:  cpu time   33.3932: real time   33.4024
       DOS:  cpu time    0.0019: real time    0.0019
    --------------------------------------------
      LOOP:  cpu time   33.3951: real time   33.4043

 eigenvalue-minimisations  :  8304
 total energy-change (2. order) :-0.4360724E+03  (-0.4149365E+03)
 number of electron     742.0000000 magnetization 
 augmentation part      742.0000000 magnetization 

 DIPCOR: dipole corrections for dipol
 direction  3 min pos   142,
 dipolmoment           0.000000      0.000000     -0.000839 electrons x Angstroem
 Tr[quadrupol]    -28843.592535

 energy correction for charged system         0.000000 eV
 dipol+quadrupol energy correction           -0.000000 eV
 added-field ion interaction         -0.005802 eV  (added to PSCEN)


 Free energy of the ion-electron system (eV)
  ---------------------------------------------------
  alpha Z        PSCENC =       993.57815012
  Ewald energy   TEWEN  =    171259.37191297
  -Hartree energ DENC   =   -213282.97708934
  -exchange      EXHF   =         0.00000000
  -V(xc)+E(xc)   XCENC  =     -2471.00032542
  PAW double counting   =     41014.26089608   -36931.58325599
  entropy T*S    EENTRO =        -0.03088510
  eigenvalues    EBANDS =     -2633.52209989
  atomic energy  EATOM  =     41128.26432592
  Solvation  Ediel_sol  =         0.00000000
  ---------------------------------------------------
  free energy    TOTEN  =      -923.63837064 eV

  energy without entropy =     -923.60748554  energy(sigma->0) =     -923.62292809


--------------------------------------------------------------------------------------------------------




--------------------------------------- Iteration      1(   4)  ---------------------------------------


     EDDAV:  cpu time   22.9076: real time   22.9193
       DOS:  cpu time    0.0020: real time    0.0020
    --------------------------------------------
      LOOP:  cpu time   22.9096: real time   22.9213

 eigenvalue-minimisations  :  6240
 total energy-change (2. order) :-0.2046454E+02  (-0.2006289E+02)
 number of electron     742.0000000 magnetization 
 augmentation part      742.0000000 magnetization 

 DIPCOR: dipole corrections for dipol
 direction  3 min pos   142,
 dipolmoment           0.000000      0.000000     -0.000839 electrons x Angstroem
 Tr[quadrupol]    -28843.592535

 energy correction for charged system         0.000000 eV
 dipol+quadrupol energy correction           -0.000000 eV
 added-field ion interaction         -0.005802 eV  (added to PSCEN)


 Free energy of the ion-electron system (eV)
  ---------------------------------------------------
  alpha Z        PSCENC =       993.57815012
  Ewald energy   TEWEN  =    171259.37191297
  -Hartree energ DENC   =   -213282.97708934
  -exchange      EXHF   =         0.00000000
  -V(xc)+E(xc)   XCENC  =     -2471.00032542
  PAW double counting   =     41014.26089608   -36931.58325599
  entropy T*S    EENTRO =        -0.03026399
  eigenvalues    EBANDS =     -2653.98725605
  atomic energy  EATOM  =     41128.26432592
  Solvation  Ediel_sol  =         0.00000000
  ---------------------------------------------------
  free energy    TOTEN  =      -944.10290569 eV

  energy without entropy =     -944.07264170  energy(sigma->0) =     -944.08777369


--------------------------------------------------------------------------------------------------------




--------------------------------------- Iteration      1(   5)  ---------------------------------------


     EDDAV:  cpu time   25.4619: real time   25.4701
       DOS:  cpu time    0.0018: real time    0.0018
    --------------------------------------------
      LOOP:  cpu time   25.4638: real time   25.4720

 eigenvalue-minimisations  :  7056
 total energy-change (2. order) :-0.6754229E+00  (-0.6702839E+00)
 number of electron     742.0000000 magnetization 
 augmentation part      742.0000000 magnetization 

 DIPCOR: dipole corrections for dipol
 direction  3 min pos   142,
 dipolmoment           0.000000      0.000000     -0.000839 electrons x Angstroem
 Tr[quadrupol]    -28843.592535

 energy correction for charged system         0.000000 eV
 dipol+quadrupol energy correction           -0.000000 eV
 added-field ion interaction         -0.005802 eV  (added to PSCEN)


 Free energy of the ion-electron system (eV)
  ---------------------------------------------------
  alpha Z        PSCENC =       993.57815012
  Ewald energy   TEWEN  =    171259.37191297
  -Hartree energ DENC   =   -213282.97708934
  -exchange      EXHF   =         0.00000000
  -V(xc)+E(xc)   XCENC  =     -2471.00032542
  PAW double counting   =     41014.26089608   -36931.58325599
  entropy T*S    EENTRO =        -0.03063018
  eigenvalues    EBANDS =     -2654.66231278
  atomic energy  EATOM  =     41128.26432592
  Solvation  Ediel_sol  =         0.00000000
  ---------------------------------------------------
  free energy    TOTEN  =      -944.77832861 eV

  energy without entropy =     -944.74769843  energy(sigma->0) =     -944.76301352


--------------------------------------------------------------------------------------------------------




--------------------------------------- Iteration      1(   6)  ---------------------------------------


     EDDAV:  cpu time   25.5517: real time   25.5620
       DOS:  cpu time    0.0019: real time    0.0019
    --------------------------------------------
      LOOP:  cpu time   25.5535: real time   25.5639

 eigenvalue-minimisations  :  7056
 total energy-change (2. order) :-0.2614815E-01  (-0.2604304E-01)
 number of electron     742.0000000 magnetization 
 augmentation part      742.0000000 magnetization 

 DIPCOR: dipole corrections for dipol
 direction  3 min pos   142,
 dipolmoment           0.000000      0.000000     -0.000839 electrons x Angstroem
 Tr[quadrupol]    -28843.592535

 energy correction for charged system         0.000000 eV
 dipol+quadrupol energy correction           -0.000000 eV
 added-field ion interaction         -0.005802 eV  (added to PSCEN)


 Free energy of the ion-electron system (eV)
  ---------------------------------------------------
  alpha Z        PSCENC =       993.57815012
  Ewald energy   TEWEN  =    171259.37191297
  -Hartree energ DENC   =   -213282.97708934
  -exchange      EXHF   =         0.00000000
  -V(xc)+E(xc)   XCENC  =     -2471.00032542
  PAW double counting   =     41014.26089608   -36931.58325599
  entropy T*S    EENTRO =        -0.03067017
  eigenvalues    EBANDS =     -2654.68842093
  atomic energy  EATOM  =     41128.26432592
  Solvation  Ediel_sol  =         0.00000000
  ---------------------------------------------------
  free energy    TOTEN  =      -944.80447675 eV

  energy without entropy =     -944.77380658  energy(sigma->0) =     -944.78914167


--------------------------------------------------------------------------------------------------------




--------------------------------------- Iteration      1(   7)  ---------------------------------------


     EDDAV:  cpu time   26.9594: real time   26.9675
       DOS:  cpu time    0.0024: real time    0.0024
    CHARGE:  cpu time    0.8524: real time    0.8561
    MIXING:  cpu time    0.0037: real time    0.0042
    --------------------------------------------
      LOOP:  cpu time   27.8179: real time   27.8302

 eigenvalue-minimisations  :  7488
 total energy-change (2. order) :-0.1119733E-02  (-0.1117704E-02)
 number of electron     742.0000108 magnetization 
 augmentation part      215.0423310 magnetization 

 DIPCOR: dipole corrections for dipol
 direction  3 min pos   142,
 dipolmoment           0.000000      0.000000     -0.000839 electrons x Angstroem
 Tr[quadrupol]    -28843.592535

 energy correction for charged system         0.000000 eV
 dipol+quadrupol energy correction           -0.000000 eV
 added-field ion interaction         -0.005802 eV  (added to PSCEN)


 Broyden mixing:
  rms(total) = 0.96560E+01    rms(broyden)= 0.96556E+01
  rms(prec ) = 0.98952E+01
  weight for this iteration     100.00

 Free energy of the ion-electron system (eV)
  ---------------------------------------------------
  alpha Z        PSCENC =       993.57815012
  Ewald energy   TEWEN  =    171259.37191297
  -Hartree energ DENC   =   -213282.97708934
  -exchange      EXHF   =         0.00000000
  -V(xc)+E(xc)   XCENC  =     -2471.00032542
  PAW double counting   =     41014.26089608   -36931.58325599
  entropy T*S    EENTRO =        -0.03068246
  eigenvalues    EBANDS =     -2654.68952837
  atomic energy  EATOM  =     41128.26432592
  Solvation  Ediel_sol  =         0.00000000
  ---------------------------------------------------
  free energy    TOTEN  =      -944.80559649 eV

  energy without entropy =     -944.77491402  energy(sigma->0) =     -944.79025525


--------------------------------------------------------------------------------------------------------




--------------------------------------- Iteration      1(   8)  ---------------------------------------


    POTLOK:  cpu time    0.0897: real time    0.0901
    SETDIJ:  cpu time    0.0102: real time    0.0102
    EDDIAG:  cpu time    3.4946: real time    3.5020
  RMM-DIIS:  cpu time    9.7114: real time    9.7193
    ORTHCH:  cpu time    0.8478: real time    0.8481
       DOS:  cpu time    0.0007: real time    0.0007
    CHARGE:  cpu time    0.8589: real time    0.8592
    MIXING:  cpu time    0.0034: real time    0.0082
    --------------------------------------------
      LOOP:  cpu time   15.0168: real time   15.0380

 eigenvalue-minimisations  :  4801
 total energy-change (2. order) : 0.5601825E+02  (-0.1743403E+02)
 number of electron     742.0000130 magnetization 
 augmentation part      229.0820577 magnetization 

 DIPCOR: dipole corrections for dipol
 direction  3 min pos   149,
 dipolmoment           0.000000      0.000000      0.529993 electrons x Angstroem
 Tr[quadrupol]    -28853.953918

 energy correction for charged system         0.000000 eV
 dipol+quadrupol energy correction           -0.006707 eV
 added-field ion interaction         16.243024 eV  (added to PSCEN)


 Broyden mixing:
  rms(total) = 0.35354E+01    rms(broyden)= 0.35352E+01
  rms(prec ) = 0.40171E+01
  weight for this iteration     100.00

 eigenvalues of (default mixing * dielectric matrix)
  average eigenvalue GAMMA=   1.3580
  1.3580

 Free energy of the ion-electron system (eV)
  ---------------------------------------------------
  alpha Z        PSCENC =      1009.82026960
  Ewald energy   TEWEN  =    171259.37191297
  -Hartree energ DENC   =   -213178.62988956
  -exchange      EXHF   =         0.00000000
  -V(xc)+E(xc)   XCENC  =     -2468.89231256
  PAW double counting   =     47647.10746144   -43661.39243264
  entropy T*S    EENTRO =        -0.03469166
  eigenvalues    EBANDS =     -2624.40199271
  atomic energy  EATOM  =     41128.26432592
  Solvation  Ediel_sol  =         0.00000000
  ---------------------------------------------------
  free energy    TOTEN  =      -888.78734922 eV

  energy without entropy =     -888.75265756  energy(sigma->0) =     -888.77000339


--------------------------------------------------------------------------------------------------------




--------------------------------------- Iteration      1(   9)  ---------------------------------------


    POTLOK:  cpu time    0.0923: real time    0.0927
    SETDIJ:  cpu time    0.0102: real time    0.0102
    EDDIAG:  cpu time    3.5836: real time    3.5851
  RMM-DIIS:  cpu time   10.0323: real time   10.0365
    ORTHCH:  cpu time    0.8412: real time    0.8415
       DOS:  cpu time    0.0007: real time    0.0007
    CHARGE:  cpu time    0.8524: real time    0.8526
    MIXING:  cpu time    0.0031: real time    0.0032
    --------------------------------------------
      LOOP:  cpu time   15.4158: real time   15.4224

 eigenvalue-minimisations  :  5021
 total energy-change (2. order) :-0.2825206E+03  (-0.3231654E+02)
 number of electron     742.0000125 magnetization 
 augmentation part      245.5167486 magnetization 

 DIPCOR: dipole corrections for dipol
 direction  3 min pos   146,
 dipolmoment           0.000000      0.000000     -5.427657 electrons x Angstroem
 Tr[quadrupol]    -28846.846498

 energy correction for charged system         0.000000 eV
 dipol+quadrupol energy correction           -0.703378 eV
 added-field ion interaction       -111.133191 eV  (added to PSCEN)


 Broyden mixing:
  rms(total) = 0.12732E+02    rms(broyden)= 0.12732E+02
  rms(prec ) = 0.20350E+02
  weight for this iteration     100.00

 eigenvalues of (default mixing * dielectric matrix)
  average eigenvalue GAMMA=   0.8091
  1.4905  0.1277

 Free energy of the ion-electron system (eV)
  ---------------------------------------------------
  alpha Z        PSCENC =       881.74738373
  Ewald energy   TEWEN  =    171259.37191297
  -Hartree energ DENC   =   -213059.62568463
  -exchange      EXHF   =         0.00000000
  -V(xc)+E(xc)   XCENC  =     -2465.05177231
  PAW double counting   =     52650.79331934   -48727.66613801
  entropy T*S    EENTRO =        -0.03717533
  eigenvalues    EBANDS =     -2839.10416085
  atomic energy  EATOM  =     41128.26432592
  Solvation  Ediel_sol  =         0.00000000
  ---------------------------------------------------
  free energy    TOTEN  =     -1171.30798915 eV

  energy without entropy =    -1171.27081382  energy(sigma->0) =    -1171.28940149


--------------------------------------------------------------------------------------------------------




--------------------------------------- Iteration      1(  10)  ---------------------------------------


    POTLOK:  cpu time    0.0896: real time    0.0899
    SETDIJ:  cpu time    0.0102: real time    0.0102
    EDDIAG:  cpu time    3.5049: real time    3.5102
  RMM-DIIS:  cpu time    9.4249: real time    9.5655
    ORTHCH:  cpu time    0.8428: real time    0.8429
       DOS:  cpu time    0.0008: real time    0.0008
    CHARGE:  cpu time    0.8619: real time    0.8624
    MIXING:  cpu time    0.0033: real time    0.0033
    --------------------------------------------
      LOOP:  cpu time   14.7383: real time   14.8852

 eigenvalue-minimisations  :  4805
 total energy-change (2. order) : 0.2521289E+03  (-0.1067728E+02)
 number of electron     742.0000125 magnetization 
 augmentation part      237.1947563 magnetization 

 DIPCOR: dipole corrections for dipol
 direction  3 min pos   150,
 dipolmoment           0.000000      0.000000      0.157130 electrons x Angstroem
 Tr[quadrupol]    -28863.751075

 energy correction for charged system         0.000000 eV
 dipol+quadrupol energy correction           -0.000589 eV
 added-field ion interaction          5.348460 eV  (added to PSCEN)


 Broyden mixing:
  rms(total) = 0.53324E+01    rms(broyden)= 0.53323E+01
  rms(prec ) = 0.81308E+01
  weight for this iteration     100.00

 eigenvalues of (default mixing * dielectric matrix)
  average eigenvalue GAMMA=   0.6108
  1.5305  0.1749  0.1271

 Free energy of the ion-electron system (eV)
  ---------------------------------------------------
  alpha Z        PSCENC =       998.93182323
  Ewald energy   TEWEN  =    171259.37191297
  -Hartree energ DENC   =   -213283.32625164
  -exchange      EXHF   =         0.00000000
  -V(xc)+E(xc)   XCENC  =     -2464.99973526
  PAW double counting   =     53933.53175625   -50023.73250082
  entropy T*S    EENTRO =        -0.05547151
  eigenvalues    EBANDS =     -2467.16492488
  atomic energy  EATOM  =     41128.26432592
  Solvation  Ediel_sol  =         0.00000000
  ---------------------------------------------------
  free energy    TOTEN  =      -919.17906575 eV

  energy without entropy =     -919.12359423  energy(sigma->0) =     -919.15132999


--------------------------------------------------------------------------------------------------------




--------------------------------------- Iteration      1(  11)  ---------------------------------------


    POTLOK:  cpu time    0.0950: real time    0.0956
    SETDIJ:  cpu time    0.0102: real time    0.0102
    EDDIAG:  cpu time    3.5980: real time    3.5995
  RMM-DIIS:  cpu time    9.6059: real time    9.6096
    ORTHCH:  cpu time    0.8487: real time    0.8490
       DOS:  cpu time    0.0008: real time    0.0008
    CHARGE:  cpu time    0.8606: real time    0.8608
    MIXING:  cpu time    0.0038: real time    0.0038
    --------------------------------------------
      LOOP:  cpu time   15.0230: real time   15.0291

 eigenvalue-minimisations  :  4826
 total energy-change (2. order) : 0.3926802E+02  (-0.3352825E+01)
 number of electron     742.0000132 magnetization 
 augmentation part      233.7588312 magnetization 

 DIPCOR: dipole corrections for dipol
 direction  3 min pos   151,
 dipolmoment           0.000000      0.000000     -1.596437 electrons x Angstroem
 Tr[quadrupol]    -28863.169537

 energy correction for charged system         0.000000 eV
 dipol+quadrupol energy correction           -0.060851 eV
 added-field ion interaction        -59.753286 eV  (added to PSCEN)


 Broyden mixing:
  rms(total) = 0.16877E+01    rms(broyden)= 0.16876E+01
  rms(prec ) = 0.27722E+01
  weight for this iteration     100.00

 eigenvalues of (default mixing * dielectric matrix)
  average eigenvalue GAMMA=   0.5842
  1.5210  0.5153  0.2047  0.0959

 Free energy of the ion-electron system (eV)
  ---------------------------------------------------
  alpha Z        PSCENC =       933.76981539
  Ewald energy   TEWEN  =    171259.37191297
  -Hartree energ DENC   =   -213380.15981535
  -exchange      EXHF   =         0.00000000
  -V(xc)+E(xc)   XCENC  =     -2465.13859671
  PAW double counting   =     54584.01319647   -50681.08376783
  entropy T*S    EENTRO =        -0.02963245
  eigenvalues    EBANDS =     -2258.91848275
  atomic energy  EATOM  =     41128.26432592
  Solvation  Ediel_sol  =         0.00000000
  ---------------------------------------------------
  free energy    TOTEN  =      -879.91104435 eV

  energy without entropy =     -879.88141190  energy(sigma->0) =     -879.89622812


--------------------------------------------------------------------------------------------------------




--------------------------------------- Iteration      1(  12)  ---------------------------------------


    POTLOK:  cpu time    0.0901: real time    0.0906
    SETDIJ:  cpu time    0.0104: real time    0.0104
    EDDIAG:  cpu time    3.5063: real time    3.5079
  RMM-DIIS:  cpu time   10.3670: real time   10.3730
    ORTHCH:  cpu time    0.8474: real time    0.8477
       DOS:  cpu time    0.0007: real time    0.0007
    CHARGE:  cpu time    0.8691: real time    0.8694
    MIXING:  cpu time    0.0037: real time    0.0037
    --------------------------------------------
      LOOP:  cpu time   15.6946: real time   15.7034

 eigenvalue-minimisations  :  5201
 total energy-change (2. order) : 0.3231999E+00  (-0.1660062E+01)
 number of electron     742.0000136 magnetization 
 augmentation part      234.1601238 magnetization 

 DIPCOR: dipole corrections for dipol
 direction  3 min pos   152,
 dipolmoment           0.000000      0.000000     -1.268937 electrons x Angstroem
 Tr[quadrupol]    -28865.486840

 energy correction for charged system         0.000000 eV
 dipol+quadrupol energy correction           -0.038445 eV
 added-field ion interaction        -51.797881 eV  (added to PSCEN)


 Broyden mixing:
  rms(total) = 0.16481E+01    rms(broyden)= 0.16481E+01
  rms(prec ) = 0.24716E+01
  weight for this iteration     100.00

 eigenvalues of (default mixing * dielectric matrix)
  average eigenvalue GAMMA=   0.5517
  1.5231  0.7493  0.0961  0.1951  0.1951

 Free energy of the ion-electron system (eV)
  ---------------------------------------------------
  alpha Z        PSCENC =       941.74762620
  Ewald energy   TEWEN  =    171259.37191297
  -Hartree energ DENC   =   -213413.90989022
  -exchange      EXHF   =         0.00000000
  -V(xc)+E(xc)   XCENC  =     -2464.76836795
  PAW double counting   =     55079.06747976   -51182.48209040
  entropy T*S    EENTRO =        -0.03153981
  eigenvalues    EBANDS =     -2226.84730092
  atomic energy  EATOM  =     41128.26432592
  Solvation  Ediel_sol  =         0.00000000
  ---------------------------------------------------
  free energy    TOTEN  =      -879.58784444 eV

  energy without entropy =     -879.55630463  energy(sigma->0) =     -879.57207454


--------------------------------------------------------------------------------------------------------




--------------------------------------- Iteration      1(  13)  ---------------------------------------


    POTLOK:  cpu time    0.0893: real time    0.0900
    SETDIJ:  cpu time    0.0103: real time    0.0103
    EDDIAG:  cpu time    3.6049: real time    3.6060
  RMM-DIIS:  cpu time   10.0382: real time   10.0423
    ORTHCH:  cpu time    0.8421: real time    0.8422
       DOS:  cpu time    0.0007: real time    0.0007
    CHARGE:  cpu time    0.8573: real time    0.8576
    MIXING:  cpu time    0.0035: real time    0.0035
    --------------------------------------------
      LOOP:  cpu time   15.4463: real time   15.4526

 eigenvalue-minimisations  :  5019
 total energy-change (2. order) : 0.4291919E+01  (-0.4258308E+00)
 number of electron     742.0000135 magnetization 
 augmentation part      234.0980061 magnetization 

 DIPCOR: dipole corrections for dipol
 direction  3 min pos   152,
 dipolmoment           0.000000      0.000000     -1.047590 electrons x Angstroem
 Tr[quadrupol]    -28866.947620

 energy correction for charged system         0.000000 eV
 dipol+quadrupol energy correction           -0.026203 eV
 added-field ion interaction        -42.762526 eV  (added to PSCEN)


 Broyden mixing:
  rms(total) = 0.62141E+00    rms(broyden)= 0.62139E+00
  rms(prec ) = 0.82698E+00
  weight for this iteration     100.00

 eigenvalues of (default mixing * dielectric matrix)
  average eigenvalue GAMMA=   0.5648
  1.5514  0.7978  0.5570  0.2269  0.0964  0.1595

 Free energy of the ion-electron system (eV)
  ---------------------------------------------------
  alpha Z        PSCENC =       950.79522392
  Ewald energy   TEWEN  =    171259.37191297
  -Hartree energ DENC   =   -213436.06435179
  -exchange      EXHF   =         0.00000000
  -V(xc)+E(xc)   XCENC  =     -2464.16503362
  PAW double counting   =     55550.35766886   -51659.68386746
  entropy T*S    EENTRO =        -0.02610133
  eigenvalues    EBANDS =     -2204.14570257
  atomic energy  EATOM  =     41128.26432592
  Solvation  Ediel_sol  =         0.00000000
  ---------------------------------------------------
  free energy    TOTEN  =      -875.29592510 eV

  energy without entropy =     -875.26982377  energy(sigma->0) =     -875.28287443


--------------------------------------------------------------------------------------------------------




--------------------------------------- Iteration      1(  14)  ---------------------------------------


    POTLOK:  cpu time    0.0904: real time    0.0910
    SETDIJ:  cpu time    0.0103: real time    0.0103
    EDDIAG:  cpu time    3.4915: real time    3.4927
  RMM-DIIS:  cpu time    9.6751: real time    9.6799
    ORTHCH:  cpu time    0.8525: real time    0.8525
       DOS:  cpu time    0.0008: real time    0.0008
    CHARGE:  cpu time    0.8577: real time    0.8577
    MIXING:  cpu time    0.0036: real time    0.0036
    --------------------------------------------
      LOOP:  cpu time   14.9818: real time   14.9886

 eigenvalue-minimisations  :  4869
 total energy-change (2. order) : 0.9487790E-01  (-0.2118793E+00)
 number of electron     742.0000135 magnetization 
 augmentation part      234.1165652 magnetization 

 DIPCOR: dipole corrections for dipol
 direction  3 min pos   152,
 dipolmoment           0.000000      0.000000     -1.087049 electrons x Angstroem
 Tr[quadrupol]    -28868.287180

 energy correction for charged system         0.000000 eV
 dipol+quadrupol energy correction           -0.028214 eV
 added-field ion interaction        -44.373246 eV  (added to PSCEN)


 Broyden mixing:
  rms(total) = 0.60571E+00    rms(broyden)= 0.60570E+00
  rms(prec ) = 0.75788E+00
  weight for this iteration     100.00

 eigenvalues of (default mixing * dielectric matrix)
  average eigenvalue GAMMA=   0.6747
  1.8862  1.3396  0.7723  0.0963  0.2514  0.2172  0.1596

 Free energy of the ion-electron system (eV)
  ---------------------------------------------------
  alpha Z        PSCENC =       949.18249246
  Ewald energy   TEWEN  =    171259.37191297
  -Hartree energ DENC   =   -213472.62661945
  -exchange      EXHF   =         0.00000000
  -V(xc)+E(xc)   XCENC  =     -2463.69977799
  PAW double counting   =     55984.70071352   -52099.17117849
  entropy T*S    EENTRO =        -0.03406273
  eigenvalues    EBANDS =     -2161.18885341
  atomic energy  EATOM  =     41128.26432592
  Solvation  Ediel_sol  =         0.00000000
  ---------------------------------------------------
  free energy    TOTEN  =      -875.20104720 eV

  energy without entropy =     -875.16698447  energy(sigma->0) =     -875.18401583


--------------------------------------------------------------------------------------------------------




--------------------------------------- Iteration      1(  15)  ---------------------------------------


    POTLOK:  cpu time    0.1636: real time    0.1646
    SETDIJ:  cpu time    0.0187: real time    0.0187
    EDDIAG:  cpu time    3.4953: real time    3.4964
  RMM-DIIS:  cpu time    9.7510: real time    9.7535
    ORTHCH:  cpu time    0.8474: real time    0.8475
       DOS:  cpu time    0.0008: real time    0.0008
    CHARGE:  cpu time    0.8541: real time    0.8542
    MIXING:  cpu time    0.0038: real time    0.0038
    --------------------------------------------
      LOOP:  cpu time   15.1346: real time   15.1394

 eigenvalue-minimisations  :  4876
 total energy-change (2. order) : 0.4609265E+00  (-0.1063271E+00)
 number of electron     742.0000134 magnetization 
 augmentation part      234.0224708 magnetization 

 DIPCOR: dipole corrections for dipol
 direction  3 min pos   152,
 dipolmoment           0.000000      0.000000     -1.046518 electrons x Angstroem
 Tr[quadrupol]    -28870.704223

 energy correction for charged system         0.000000 eV
 dipol+quadrupol energy correction           -0.026149 eV
 added-field ion interaction        -42.718748 eV  (added to PSCEN)


 Broyden mixing:
  rms(total) = 0.39785E+00    rms(broyden)= 0.39785E+00
  rms(prec ) = 0.53332E+00
  weight for this iteration     100.00

 eigenvalues of (default mixing * dielectric matrix)
  average eigenvalue GAMMA=   0.6458
  1.9578  1.3837  0.8088  0.3282  0.0964  0.1553  0.2367  0.1999

 Free energy of the ion-electron system (eV)
  ---------------------------------------------------
  alpha Z        PSCENC =       950.83905536
  Ewald energy   TEWEN  =    171259.37191297
  -Hartree energ DENC   =   -213537.09016188
  -exchange      EXHF   =         0.00000000
  -V(xc)+E(xc)   XCENC  =     -2462.61467909
  PAW double counting   =     56819.76532433   -52944.05307401
  entropy T*S    EENTRO =        -0.03008933
  eigenvalues    EBANDS =     -2089.19273503
  atomic energy  EATOM  =     41128.26432592
  Solvation  Ediel_sol  =         0.00000000
  ---------------------------------------------------
  free energy    TOTEN  =      -874.74012075 eV

  energy without entropy =     -874.71003142  energy(sigma->0) =     -874.72507608


--------------------------------------------------------------------------------------------------------




--------------------------------------- Iteration      1(  16)  ---------------------------------------


    POTLOK:  cpu time    0.0901: real time    0.0902
    SETDIJ:  cpu time    0.0102: real time    0.0102
    EDDIAG:  cpu time    3.4867: real time    3.4876
  RMM-DIIS:  cpu time    9.8277: real time    9.8297
    ORTHCH:  cpu time    0.8462: real time    0.8463
       DOS:  cpu time    0.0007: real time    0.0007
    CHARGE:  cpu time    0.9507: real time    0.9508
    MIXING:  cpu time    0.0040: real time    0.0040
    --------------------------------------------
      LOOP:  cpu time   15.2164: real time   15.2195

 eigenvalue-minimisations  :  4909
 total energy-change (2. order) : 0.1809751E+00  (-0.3537908E-01)
 number of electron     742.0000134 magnetization 
 augmentation part      234.0302491 magnetization 

 DIPCOR: dipole corrections for dipol
 direction  3 min pos   152,
 dipolmoment           0.000000      0.000000     -1.049590 electrons x Angstroem
 Tr[quadrupol]    -28871.486612

 energy correction for charged system         0.000000 eV
 dipol+quadrupol energy correction           -0.026303 eV
 added-field ion interaction        -42.844147 eV  (added to PSCEN)


 Broyden mixing:
  rms(total) = 0.22167E+00    rms(broyden)= 0.22166E+00
  rms(prec ) = 0.30953E+00
  weight for this iteration     100.00

 eigenvalues of (default mixing * dielectric matrix)
  average eigenvalue GAMMA=   0.6676
  1.9914  1.4756  1.0388  0.5639  0.0963  0.2585  0.1585  0.2310  0.1945

 Free energy of the ion-electron system (eV)
  ---------------------------------------------------
  alpha Z        PSCENC =       950.71350256
  Ewald energy   TEWEN  =    171259.37191297
  -Hartree energ DENC   =   -213557.77349976
  -exchange      EXHF   =         0.00000000
  -V(xc)+E(xc)   XCENC  =     -2462.35859887
  PAW double counting   =     56976.75831395   -53102.98080811
  entropy T*S    EENTRO =        -0.02992383
  eigenvalues    EBANDS =     -2066.52437048
  atomic energy  EATOM  =     41128.26432592
  Solvation  Ediel_sol  =         0.00000000
  ---------------------------------------------------
  free energy    TOTEN  =      -874.55914565 eV

  energy without entropy =     -874.52922182  energy(sigma->0) =     -874.54418374


--------------------------------------------------------------------------------------------------------




--------------------------------------- Iteration      1(  17)  ---------------------------------------


    POTLOK:  cpu time    0.0903: real time    0.0908
    SETDIJ:  cpu time    0.0102: real time    0.0102
    EDDIAG:  cpu time    3.4835: real time    3.4840
  RMM-DIIS:  cpu time    9.9336: real time    9.9356
    ORTHCH:  cpu time    0.8418: real time    0.8419
       DOS:  cpu time    0.0007: real time    0.0007
    CHARGE:  cpu time    0.8566: real time    0.8570
    MIXING:  cpu time    0.0042: real time    0.0042
    --------------------------------------------
      LOOP:  cpu time   15.2210: real time   15.2246

 eigenvalue-minimisations  :  4934
 total energy-change (2. order) : 0.4790386E-01  (-0.1208017E-01)
 number of electron     742.0000135 magnetization 
 augmentation part      234.0391684 magnetization 

 DIPCOR: dipole corrections for dipol
 direction  3 min pos   152,
 dipolmoment           0.000000      0.000000     -1.140471 electrons x Angstroem
 Tr[quadrupol]    -28872.590891

 energy correction for charged system         0.000000 eV
 dipol+quadrupol energy correction           -0.031055 eV
[...]
      LOOP:  cpu time   14.2331: real time   14.2454

 eigenvalue-minimisations  :  4496
 total energy-change (2. order) :-0.3136358E-04  (-0.7512364E-05)
 number of electron     742.0000138 magnetization 
 augmentation part      234.0916733 magnetization 

 DIPCOR: dipole corrections for dipol
 direction  3 min pos   148,
 dipolmoment           0.000000      0.000000     -1.151728 electrons x Angstroem
 Tr[quadrupol]    -28880.082215

 energy correction for charged system         0.000000 eV
 dipol+quadrupol energy correction           -0.031671 eV
 added-field ion interaction        -31.388579 eV  (added to PSCEN)


 eigenvalues of (default mixing * dielectric matrix)
  average eigenvalue GAMMA=   0.4963
  1.1642  0.2056  0.1191

  free energy =  -0.874464664154E+03  energy without entropy=  -0.874434685980E+03


--------------------------------------------------------------------------------------------------------




--------------------------------------- Iteration     18(   5)  ---------------------------------------


    POTLOK:  cpu time    0.0926: real time    0.0932
    SETDIJ:  cpu time    0.0102: real time    0.0102
    EDDIAG:  cpu time    3.6108: real time    3.6132
  RMM-DIIS:  cpu time    7.6440: real time    7.6477
    ORTHCH:  cpu time    0.8421: real time    0.8422
       DOS:  cpu time    0.0008: real time    0.0008
    CHARGE:  cpu time    0.8556: real time    0.8560
    MIXING:  cpu time    0.0035: real time    0.0035
    --------------------------------------------
      LOOP:  cpu time   13.0595: real time   13.0668

 eigenvalue-minimisations  :  3760
 total energy-change (2. order) : 0.2348552E-04  (-0.4748320E-05)
 number of electron     742.0000138 magnetization 
 augmentation part      234.0910961 magnetization 

 DIPCOR: dipole corrections for dipol
 direction  3 min pos   148,
 dipolmoment           0.000000      0.000000     -1.155242 electrons x Angstroem
 Tr[quadrupol]    -28880.074415

 energy correction for charged system         0.000000 eV
 dipol+quadrupol energy correction           -0.031865 eV
 added-field ion interaction        -31.484324 eV  (added to PSCEN)


 eigenvalues of (default mixing * dielectric matrix)
  average eigenvalue GAMMA=   0.5429
  1.6032  0.3056  0.1717  0.0909

  free energy =  -0.874464640668E+03  energy without entropy=  -0.874434604665E+03


--------------------------------------------------------------------------------------------------------




--------------------------------------- Iteration     18(   6)  ---------------------------------------


    POTLOK:  cpu time    0.0926: real time    0.0942
    SETDIJ:  cpu time    0.0102: real time    0.0102
    EDDIAG:  cpu time    3.4878: real time    3.4889
  RMM-DIIS:  cpu time    6.1409: real time    6.1459
    ORTHCH:  cpu time    0.8528: real time    0.8530
       DOS:  cpu time    0.0007: real time    0.0007
    CHARGE:  cpu time    0.8595: real time    0.8599
    MIXING:  cpu time    0.0035: real time    0.0035
    --------------------------------------------
      LOOP:  cpu time   11.4481: real time   11.4565

 eigenvalue-minimisations  :  2978
 total energy-change (2. order) : 0.2549667E-04  (-0.2737920E-05)
 number of electron     742.0000138 magnetization 
 augmentation part      234.0912584 magnetization 

 DIPCOR: dipole corrections for dipol
 direction  3 min pos   148,
 dipolmoment           0.000000      0.000000     -1.154017 electrons x Angstroem
 Tr[quadrupol]    -28880.077099

 energy correction for charged system         0.000000 eV
 dipol+quadrupol energy correction           -0.031797 eV
 added-field ion interaction        -31.450939 eV  (added to PSCEN)


 eigenvalues of (default mixing * dielectric matrix)
  average eigenvalue GAMMA=   0.6142
  1.9137  0.6466  0.2559  0.1634  0.0911

  free energy =  -0.874464615172E+03  energy without entropy=  -0.874434587468E+03


--------------------------------------------------------------------------------------------------------




--------------------------------------- Iteration     18(   7)  ---------------------------------------


    POTLOK:  cpu time    0.0926: real time    0.0935
    SETDIJ:  cpu time    0.0102: real time    0.0102
    EDDIAG:  cpu time    3.4799: real time    3.4890
  RMM-DIIS:  cpu time    5.2173: real time    5.2205
    ORTHCH:  cpu time    0.8481: real time    0.8484
       DOS:  cpu time    0.0007: real time    0.0007
    --------------------------------------------
      LOOP:  cpu time    9.6489: real time    9.6623

 eigenvalue-minimisations  :  2513
 total energy-change (2. order) :-0.3694600E-05  (-0.1637747E-05)
 number of electron     742.0000138 magnetization 
 augmentation part      234.0912584 magnetization 

 DIPCOR: dipole corrections for dipol
 direction  3 min pos   148,
 dipolmoment           0.000000      0.000000     -1.154175 electrons x Angstroem
 Tr[quadrupol]    -28880.077107

 energy correction for charged system         0.000000 eV
 dipol+quadrupol energy correction           -0.031806 eV
 added-field ion interaction        -31.455252 eV  (added to PSCEN)


  free energy =  -0.874464618866E+03  energy without entropy=  -0.874434602073E+03


--------------------------------------------------------------------------------------------------------




------------------------ aborting loop because EDIFF is reached ----------------------------------------


    CHARGE:  cpu time    0.8555: real time    0.8559
    FORLOC:  cpu time    0.0502: real time    0.0502
    FORNL :  cpu time    3.5181: real time    3.5195
    STRESS:  cpu time   10.4225: real time   10.4282
    FORCOR:  cpu time    0.1155: real time    0.1155
    FORHAR:  cpu time    0.0654: real time    0.0654
    MIXING:  cpu time    0.0037: real time    0.0037
    OFIELD:  cpu time    0.0000: real time    0.0000

  Number of pair interactions contributing to vdW energy:  412394
  Edisp (eV):   -8.00580
    FORVDW:  cpu time    0.0554: real time    0.0554

  FORCE on cell =-STRESS in cart. coord.  units (eV):
  Direction    XX          YY          ZZ          XY          YZ          ZX
  --------------------------------------------------------------------------------------
  Alpha Z   993.58395   993.58395   993.58395
  Ewald  200945.24351201099.42411************   185.80004  -583.45792   173.23550
  Hartree209079.21063209224.71080************   109.39675  -400.82538   108.48943
  E(xc)   -3429.32435 -3428.42185 -3434.79221    -0.05291    -0.67747     0.17195
  Local  ************************424193.01079  -291.54752   960.76642  -274.06041
  n-local   774.61867   774.75342   574.69339     1.56345    -2.61150     0.30902
  augment  3819.87080  3814.78456  3837.40439     0.42708     1.64432    -0.52782
  Kinetic  8942.50205  8913.02326  9079.05457    -2.43998    24.69558    -8.16681
  Fock        0.00000     0.00000     0.00000     0.00000     0.00000     0.00000
  vdW        -8.88758    -8.98008    -6.73340    -0.12703    -0.03296     0.05416
  -------------------------------------------------------------------------------------
  Total    -106.45111  -102.81159  -118.10698     3.01989    -0.49890    -0.49499
  in kB     -44.59125   -43.06669   -49.47377     1.26500    -0.20898    -0.20735
  external pressure =      -45.71 kB  Pullay stress =        0.00 kB



--------------------------------------------------------------------------------------------------------



  FREE ENERGIE OF THE ION-ELECTRON SYSTEM (eV)
  ---------------------------------------------------
  free  energy   TOTEN  =      -882.47041798 eV

  energy  without entropy=     -882.44040119  energy(sigma->0) =     -882.45540958
 
 d Force = 0.1078131E-03[ 0.314E-05, 0.212E-03]  d Energy = 0.9524895E-04 0.126E-04
 d Force =-0.3437613E+01[-0.344E+01,-0.344E+01]  d Ewald  =-0.3437614E+01 0.317E-06


--------------------------------------------------------------------------------------------------------


    POTLOK:  cpu time    0.1048: real time    0.1048


--------------------------------------------------------------------------------------------------------




--------------------------------------------------------------------------------------------------------


    WAVPRE:  cpu time    0.0497: real time    0.0511
    FEWALD:  cpu time    0.0024: real time    0.0024
    ORTHCH:  cpu time    1.9970: real time    1.9975
     LOOP+:  cpu time  115.4839: real time  115.5610


--------------------------------------- Iteration     19(   1)  ---------------------------------------


    POTLOK:  cpu time    0.0939: real time    0.0944
    SETDIJ:  cpu time    0.0102: real time    0.0103
     EDDAV:  cpu time   19.5347: real time   19.5505
       DOS:  cpu time    0.0022: real time    0.0022
    CHARGE:  cpu time    0.8608: real time    0.8611
    MIXING:  cpu time    0.0025: real time    0.0025
    --------------------------------------------
      LOOP:  cpu time   20.5044: real time   20.5210

 eigenvalue-minimisations  :  5088
 total energy-change (2. order) :-0.5535808E-04  (-0.2902743E-03)
 number of electron     742.0000138 magnetization 
 augmentation part      234.0911387 magnetization 

 DIPCOR: dipole corrections for dipol
 direction  3 min pos   148,
 dipolmoment           0.000000      0.000000     -1.154115 electrons x Angstroem
 Tr[quadrupol]    -28880.041149

 energy correction for charged system         0.000000 eV
 dipol+quadrupol energy correction           -0.031803 eV
 added-field ion interaction        -31.453436 eV  (added to PSCEN)


  free energy =  -0.874464670530E+03  energy without entropy=  -0.874434649175E+03


--------------------------------------------------------------------------------------------------------




--------------------------------------- Iteration     19(   2)  ---------------------------------------


    POTLOK:  cpu time    0.0931: real time    0.0934
    SETDIJ:  cpu time    0.0102: real time    0.0102
    EDDIAG:  cpu time    3.4734: real time    3.4752
  RMM-DIIS:  cpu time    8.7555: real time    8.7590
    ORTHCH:  cpu time    0.8379: real time    0.8416
       DOS:  cpu time    0.0007: real time    0.0007
    CHARGE:  cpu time    0.8592: real time    0.8596
    MIXING:  cpu time    0.0028: real time    0.0028
    --------------------------------------------
      LOOP:  cpu time   14.0329: real time   14.0426

 eigenvalue-minimisations  :  4374
 total energy-change (2. order) :-0.2730812E-04  (-0.1044497E-04)
 number of electron     742.0000138 magnetization 
 augmentation part      234.0910605 magnetization 

 DIPCOR: dipole corrections for dipol
 direction  3 min pos   148,
 dipolmoment           0.000000      0.000000     -1.154227 electrons x Angstroem
 Tr[quadrupol]    -28880.040716

 energy correction for charged system         0.000000 eV
 dipol+quadrupol energy correction           -0.031809 eV
 added-field ion interaction        -31.456472 eV  (added to PSCEN)


 eigenvalues of (default mixing * dielectric matrix)
  average eigenvalue GAMMA=   0.2313
  0.2313

  free energy =  -0.874464697838E+03  energy without entropy=  -0.874434681469E+03


--------------------------------------------------------------------------------------------------------




--------------------------------------- Iteration     19(   3)  ---------------------------------------


    POTLOK:  cpu time    0.0931: real time    0.0935
    SETDIJ:  cpu time    0.0102: real time    0.0102
    EDDIAG:  cpu time    3.4979: real time    3.4993
  RMM-DIIS:  cpu time    5.1891: real time    5.1915
    ORTHCH:  cpu time    0.8455: real time    0.8457
       DOS:  cpu time    0.0007: real time    0.0007
    CHARGE:  cpu time    0.8689: real time    0.8692
    MIXING:  cpu time    0.0029: real time    0.0029
    --------------------------------------------
      LOOP:  cpu time   10.5085: real time   10.5131

 eigenvalue-minimisations  :  2466
 total energy-change (2. order) : 0.2301631E-04  (-0.1579794E-05)
 number of electron     742.0000138 magnetization 
 augmentation part      234.0910757 magnetization 

 DIPCOR: dipole corrections for dipol
 direction  3 min pos   148,
 dipolmoment           0.000000      0.000000     -1.153949 electrons x Angstroem
 Tr[quadrupol]    -28880.041440

 energy correction for charged system         0.000000 eV
 dipol+quadrupol energy correction           -0.031793 eV
 added-field ion interaction        -31.448893 eV  (added to PSCEN)


 eigenvalues of (default mixing * dielectric matrix)
  average eigenvalue GAMMA=   0.3564
  0.5276  0.1851

  free energy =  -0.874464674822E+03  energy without entropy=  -0.874434654085E+03


--------------------------------------------------------------------------------------------------------




--------------------------------------- Iteration     19(   4)  ---------------------------------------


    POTLOK:  cpu time    0.0925: real time    0.0934
    SETDIJ:  cpu time    0.0102: real time    0.0102
    EDDIAG:  cpu time    3.4832: real time    3.4854
  RMM-DIIS:  cpu time    5.0436: real time    5.0461
    ORTHCH:  cpu time    0.8460: real time    0.8461
       DOS:  cpu time    0.0007: real time    0.0007
    CHARGE:  cpu time    0.8591: real time    0.8593
    MIXING:  cpu time    0.0030: real time    0.0030
    --------------------------------------------
      LOOP:  cpu time   10.3383: real time   10.3444

 eigenvalue-minimisations  :  2411
 total energy-change (2. order) :-0.7434355E-06  (-0.5268084E-06)
 number of electron     742.0000138 magnetization 
 augmentation part      234.0910184 magnetization 

 DIPCOR: dipole corrections for dipol
 direction  3 min pos   148,
 dipolmoment           0.000000      0.000000     -1.154550 electrons x Angstroem
 Tr[quadrupol]    -28880.039995

 energy correction for charged system         0.000000 eV
 dipol+quadrupol energy correction           -0.031827 eV
 added-field ion interaction        -31.465284 eV  (added to PSCEN)


 eigenvalues of (default mixing * dielectric matrix)
  average eigenvalue GAMMA=   0.4433
  0.9794  0.2140  0.1365

  free energy =  -0.874464675565E+03  energy without entropy=  -0.874434647701E+03


--------------------------------------------------------------------------------------------------------




--------------------------------------- Iteration     19(   5)  ---------------------------------------


    POTLOK:  cpu time    0.0933: real time    0.0938
    SETDIJ:  cpu time    0.0102: real time    0.0103
    EDDIAG:  cpu time    3.4695: real time    3.4703
  RMM-DIIS:  cpu time    5.0493: real time    5.0592
    ORTHCH:  cpu time    0.8473: real time    0.8477
       DOS:  cpu time    0.0007: real time    0.0007
    --------------------------------------------
      LOOP:  cpu time    9.4703: real time    9.4819

 eigenvalue-minimisations  :  2403
 total energy-change (2. order) :-0.2865199E-06  (-0.3481633E-06)
 number of electron     742.0000138 magnetization 
 augmentation part      234.0910184 magnetization 

 DIPCOR: dipole corrections for dipol
 direction  3 min pos   148,
 dipolmoment           0.000000      0.000000     -1.153663 electrons x Angstroem
 Tr[quadrupol]    -28880.041777

 energy correction for charged system         0.000000 eV
 dipol+quadrupol energy correction           -0.031778 eV
 added-field ion interaction        -31.441119 eV  (added to PSCEN)


  free energy =  -0.874464675852E+03  energy without entropy=  -0.874434665812E+03


--------------------------------------------------------------------------------------------------------




------------------------ aborting loop because EDIFF is reached ----------------------------------------


    CHARGE:  cpu time    0.8582: real time    0.8584
    FORLOC:  cpu time    0.0503: real time    0.0503
    FORNL :  cpu time    3.5505: real time    3.5518
    STRESS:  cpu time   10.4201: real time   10.4243
    FORCOR:  cpu time    0.1156: real time    0.1156
    FORHAR:  cpu time    0.0654: real time    0.0654
    MIXING:  cpu time    0.0033: real time    0.0033
    OFIELD:  cpu time    0.0001: real time    0.0000

  Number of pair interactions contributing to vdW energy:  412395
  Edisp (eV):   -8.00580
    FORVDW:  cpu time    0.0553: real time    0.0553

  FORCE on cell =-STRESS in cart. coord.  units (eV):
  Direction    XX          YY          ZZ          XY          YZ          ZX
  --------------------------------------------------------------------------------------
  Alpha Z   993.58395   993.58395   993.58395
  Ewald  200944.57311201098.65640************   185.80592  -583.63425   173.33019
  Hartree209077.29932209223.19989************   109.08135  -400.97507   108.53557
  E(xc)   -3429.32224 -3428.42065 -3434.78979    -0.05304    -0.67822     0.17206
  Local  ************************424190.40092  -291.23260   961.08013  -274.19081
  n-local   774.61892   774.75225   574.69007     1.56504    -2.61410     0.30861
  augment  3819.87124  3814.78783  3837.40396     0.42642     1.64613    -0.52839
  Kinetic  8942.48010  8913.02421  9079.05133    -2.44055    24.71985    -8.16863
  Fock        0.00000     0.00000     0.00000     0.00000     0.00000     0.00000
  vdW        -8.88740    -8.98004    -6.73345    -0.12696    -0.03295     0.05417
  -------------------------------------------------------------------------------------
  Total    -106.44771  -102.81121  -118.12977     3.02560    -0.48848    -0.48723
  in kB     -44.58982   -43.06653   -49.48331     1.26739    -0.20462    -0.20409
  external pressure =      -45.71 kB  Pullay stress =        0.00 kB



--------------------------------------------------------------------------------------------------------



  FREE ENERGIE OF THE ION-ELECTRON SYSTEM (eV)
  ---------------------------------------------------
  free  energy   TOTEN  =      -882.47047320 eV

  energy  without entropy=     -882.44046316  energy(sigma->0) =     -882.45546818
 
 d Force = 0.5806942E-04[ 0.463E-04, 0.699E-04]  d Energy = 0.5522233E-04 0.285E-05
 d Force = 0.8094151E+00[ 0.809E+00, 0.809E+00]  d Ewald  = 0.8094151E+00 0.515E-07


--------------------------------------------------------------------------------------------------------


    POTLOK:  cpu time    0.1047: real time    0.1048


--------------------------------------------------------------------------------------------------------


 Conjugate gradient step on ions:
 trial-energy change:   -0.000055  1 .order   -0.000058   -0.000070   -0.000046
  (g-gl).g = 0.699E-04      g.g   = 0.932E-04  gl.gl    = 0.170E-03
 g(Force)  = 0.932E-04   g(Stress)= 0.000E+00 ortho     =-0.182E-05
 gamma     =   0.41190
 trial     =   0.75599
 opt step  =   2.23945  (harmonic =   2.23945) maximal distance =0.00172514
 next E    =  -882.470521   (d E  =  -0.00010)


--------------------------------------------------------------------------------------------------------


  
 reached required accuracy - stopping structural energy minimisation
     LOOP+:  cpu time   80.1338: real time   80.1901
    4ORBIT:  cpu time    0.0000: real time    0.0000

 total amount of memory used by VASP MPI-rank0   177037. kBytes
=======================================================================

   base      :      30000. kBytes
   nonlr-proj:      36691. kBytes
   fftplans  :       6642. kBytes
   grid      :      34272. kBytes
   one-center:       1695. kBytes
   wavefun   :      67737. kBytes
 
  
  
 General timing and accounting informations for this job:
 ========================================================
  
                  Total CPU time used (sec):     2318.125
                            User time (sec):     2293.674
                          System time (sec):       24.451
                         Elapsed time (sec):     2320.417
  
                   Maximum memory used (kb):      509360.
                   Average memory used (kb):           0.
  
                          Minor page faults:      2696929
                          Major page faults:            0
                 Voluntary context switches:         5877
