 vasp.5.4.4.18Apr17-6-g9f103f2a35 (build Jun 30 2017 19:19:18) complex          
  
 executed on         MareNostrum4 date 2022.05.13  15:13:34
 running on   48 total cores
 distrk:  each k-point on   48 cores,    1 groups
 distr:  one band on NCORES_PER_BAND=   1 cores,   48 groups


--------------------------------------------------------------------------------------------------------


 INCAR:
 POTCAR:    PAW_PBE H 15Jun2001                   
 POTCAR:    PAW_PBE C 08Apr2002                   

 ----------------------------------------------------------------------------- 
|                                                                             |
|           W    W    AA    RRRRR   N    N  II  N    N   GGGG   !!!           |
|           W    W   A  A   R    R  NN   N  II  NN   N  G    G  !!!           |
|           W    W  A    A  R    R  N N  N  II  N N  N  G       !!!           |
|           W WW W  AAAAAA  RRRRR   N  N N  II  N  N N  G  GGG   !            |
|           WW  WW  A    A  R   R   N   NN  II  N   NN  G    G                |
|           W    W  A    A  R    R  N    N  II  N    N   GGGG   !!!           |
|                                                                             |
|      For optimal performance we recommend to set                            |
|        NCORE= 4 - approx SQRT( number of cores)                             |
|      NCORE specifies how many cores store one orbital (NPAR=cpu/NCORE).     |
|      This setting can  greatly improve the performance of VASP for DFT.     |
|      The default,   NCORE=1            might be grossly inefficient         |
|      on modern multi-core architectures or massively parallel machines.     |
|      Do your own testing !!!!                                               |
|      Unfortunately you need to use the default for GW and RPA calculations. |
|      (for HF NCORE is supported but not extensively tested yet)             |
|                                                                             |
 ----------------------------------------------------------------------------- 

 POTCAR:    PAW_PBE H 15Jun2001                   
  local pseudopotential read in
  atomic valenz-charges read in
  non local Contribution for L=           0  read in
    real space projection operators read in
  non local Contribution for L=           0  read in
    real space projection operators read in
  non local Contribution for L=           1  read in
    real space projection operators read in
    PAW grid and wavefunctions read in
 
   number of l-projection  operators is LMAX  =           3
   number of lm-projection operators is LMMAX =           5
 
 POTCAR:    PAW_PBE C 08Apr2002                   
  local pseudopotential read in
  partial core-charges read in
  partial kinetic energy density read in
  atomic valenz-charges read in
  non local Contribution for L=           0  read in
    real space projection operators read in
  non local Contribution for L=           0  read in
    real space projection operators read in
  non local Contribution for L=           1  read in
    real space projection operators read in
  non local Contribution for L=           1  read in
    real space projection operators read in
    PAW grid and wavefunctions read in
 
   number of l-projection  operators is LMAX  =           4
   number of lm-projection operators is LMMAX =           8
 
 Optimization of the real space projectors (new method)

 maximal supplied QI-value         = 34.20
 optimisation between [QCUT,QGAM] = [ 10.60, 21.55] = [ 31.48,130.03] Ry 
 Optimized for a Real-space Cutoff    1.23 Angstroem

   l    n(q)    QCUT    max X(q) W(low)/X(q) W(high)/X(q)  e(spline) 
   0      8    10.603    19.460    0.37E-03    0.59E-03    0.23E-06
   0      8    10.603    12.209    0.35E-03    0.56E-03    0.22E-06
   1      7    10.603     4.655    0.70E-04    0.28E-03    0.29E-06
 Optimization of the real space projectors (new method)

 maximal supplied QI-value         = 25.13
 optimisation between [QCUT,QGAM] = [ 10.81, 21.61] = [ 32.71,130.83] Ry 
 Optimized for a Real-space Cutoff    1.23 Angstroem

   l    n(q)    QCUT    max X(q) W(low)/X(q) W(high)/X(q)  e(spline) 
   0      8    10.807   115.676    0.36E-03    0.72E-03    0.24E-06
   0      8    10.807    87.132    0.35E-03    0.71E-03    0.24E-06
   1      7    10.807     4.429    0.19E-03    0.39E-03    0.11E-06
   1      7    10.807     2.733    0.14E-03    0.28E-03    0.13E-06
  PAW_PBE H 15Jun2001                   :
 energy of atom  1       EATOM=  -12.4884
 kinetic energy error for atom=    0.0045 (will be added to EATOM!!)
  PAW_PBE C 08Apr2002                   :
 energy of atom  2       EATOM= -147.1560
 kinetic energy error for atom=    0.0116 (will be added to EATOM!!)
 
 
 POSCAR: H  C                                    
  positions in cartesian coordinates
  No initial velocities read in
 exchange correlation table for  LEXCH =        8
   RHO(1)=    0.500       N(1)  =     2000
   RHO(2)=  100.500       N(2)  =     4000
 


--------------------------------------------------------------------------------------------------------


 ion  position               nearest neighbor table
   1  0.340  0.803  0.621-  33 1.10
   2  0.305  0.833  0.674-  33 1.10
   3  0.384  0.856  0.721-  34 1.10
   4  0.395  0.872  0.655-  34 1.10
   5  0.436  0.771  0.654-  36 1.09
   6  0.500  0.868  0.690-  37 1.10
   7  0.477  0.858  0.625-  37 1.10
   8  0.553  0.821  0.605-  39 1.10
   9  0.578  0.817  0.724-  40 1.10
  10  0.595  0.865  0.676-  40 1.10
  11  0.646  0.782  0.628-  42 1.10
  12  0.688  0.846  0.725-  43 1.10
  13  0.684  0.868  0.658-  43 1.10
  14  0.748  0.791  0.633-  45 1.10
  15  0.773  0.887  0.633-  46 1.09
  16  0.826  0.848  0.658-  46 1.10
  17  0.786  0.884  0.703-  46 1.10
  18  0.361  0.724  0.675-  35 1.09
  19  0.292  0.737  0.679-  35 1.09
  20  0.334  0.755  0.733-  35 1.09
  21  0.441  0.809  0.770-  38 1.10
  22  0.495  0.773  0.745-  38 1.09
  23  0.431  0.744  0.744-  38 1.09
  24  0.526  0.725  0.675-  41 1.09
  25  0.570  0.727  0.621-  41 1.09
  26  0.502  0.737  0.610-  41 1.09
  27  0.660  0.751  0.746-  44 1.10
  28  0.676  0.714  0.687-  44 1.09
  29  0.609  0.721  0.707-  44 1.09
  30  0.764  0.792  0.755-  47 1.10
  31  0.814  0.770  0.710-  47 1.10
  32  0.753  0.736  0.714-  47 1.09
  33  0.340  0.808  0.665-   1 1.10   2 1.10  35 1.52  34 1.54
  34  0.390  0.838  0.682-   3 1.10   4 1.10  33 1.54  36 1.55
  35  0.331  0.753  0.689-  20 1.09  18 1.09  19 1.09  33 1.52
  36  0.442  0.804  0.682-   5 1.09  38 1.54  37 1.55  34 1.55
  37  0.490  0.837  0.661-   6 1.10   7 1.10  36 1.55  39 1.56
  38  0.453  0.782  0.738-  22 1.09  23 1.09  21 1.10  36 1.54
  39  0.542  0.806  0.645-   8 1.10  41 1.53  40 1.55  37 1.56
  40  0.590  0.822  0.682-   9 1.10  10 1.10  39 1.55  42 1.55
  41  0.535  0.745  0.638-  24 1.09  25 1.09  26 1.09  39 1.53
  42  0.644  0.793  0.671-  11 1.10  44 1.53  43 1.55  40 1.55
  43  0.690  0.832  0.683-  13 1.10  12 1.10  45 1.55  42 1.55
  44  0.647  0.742  0.705-  29 1.09  28 1.09  27 1.10  42 1.53
  45  0.748  0.812  0.671-  14 1.10  47 1.53  46 1.54  43 1.55
  46  0.785  0.861  0.666-  15 1.09  16 1.10  17 1.10  45 1.54
  47  0.770  0.776  0.715-  32 1.09  31 1.10  30 1.10  45 1.53
 
  LATTYP: Found a simple cubic cell.
 ALAT       =    25.0000000000
  
  Lattice vectors:
  
 A1 = (  25.0000000000,   0.0000000000,   0.0000000000)
 A2 = (   0.0000000000,  25.0000000000,   0.0000000000)
 A3 = (   0.0000000000,   0.0000000000,  25.0000000000)


Analysis of symmetry for initial positions (statically):
=====================================================================
 Subroutine PRICEL returns:
 Original cell was already a primitive cell.
 

 Routine SETGRP: Setting up the symmetry group for a 
 simple cubic supercell.


 Subroutine GETGRP returns: Found  1 space group operations
 (whereof  1 operations were pure point group operations)
 out of a pool of 48 trial point group operations.


The static configuration has the point symmetry C_1 .


Analysis of symmetry for dynamics (positions and initial velocities):
=====================================================================
 Subroutine PRICEL returns:
 Original cell was already a primitive cell.
 

 Routine SETGRP: Setting up the symmetry group for a 
 simple cubic supercell.


 Subroutine GETGRP returns: Found  1 space group operations
 (whereof  1 operations were pure point group operations)
 out of a pool of 48 trial point group operations.


The dynamic configuration has the point symmetry C_1 .


Analysis of constrained symmetry for selective dynamics:
=====================================================================
 Subroutine PRICEL returns:
 Original cell was already a primitive cell.
 

 Routine SETGRP: Setting up the symmetry group for a 
 simple cubic supercell.


 Subroutine GETGRP returns: Found  1 space group operations
 (whereof  1 operations were pure point group operations)
 out of a pool of 48 trial point group operations.


The constrained configuration has the point symmetry C_1 .


 Subroutine INISYM returns: Found  1 space group operations
 (whereof  1 operations are pure point group operations),
 and found     1 'primitive' translations

 
 
 KPOINTS: K-POINTS                                

Automatic generation of k-mesh.
Space group operators:
 irot       det(A)        alpha          n_x          n_y          n_z        tau_x        tau_y        tau_z
    1     1.000000     0.000000     1.000000     0.000000     0.000000     0.000000     0.000000     0.000000
 
 Subroutine IBZKPT returns following result:
 ===========================================
 
 Found      1 irreducible k-points:
 
 Following reciprocal coordinates:
            Coordinates               Weight
  0.000000  0.000000  0.000000      1.000000
 
 Following cartesian coordinates:
            Coordinates               Weight
  0.000000  0.000000  0.000000      1.000000
 


--------------------------------------------------------------------------------------------------------




 Dimension of arrays:
   k-points           NKPTS =      1   k-points in BZ     NKDIM =      1   number of bands    NBANDS=     96
   number of dos      NEDOS =    301   number of ions     NIONS =     47
   non local maximal  LDIM  =      4   non local SUM 2l+1 LMDIM =      8
   total plane-waves  NPLWV = ******
   max r-space proj   IRMAX =   1408   max aug-charges    IRDMAX=   2272
   dimension x,y,z NGX =   140 NGY =  140 NGZ =  140
   dimension x,y,z NGXF=   280 NGYF=  280 NGZF=  280
   support grid    NGXF=   280 NGYF=  280 NGZF=  280
   ions per type =              32  15
   NGX,Y,Z   is equivalent  to a cutoff of   9.31,  9.31,  9.31 a.u.
   NGXF,Y,Z  is equivalent  to a cutoff of  18.62, 18.62, 18.62 a.u.

 SYSTEM =  x                                       
 POSCAR =  H  C                                    

 Startparameter for this run:
   NWRITE =      0    write-flag & timer
   PREC   = normal    normal or accurate (medium, high low for compatibility)
   ISTART =      0    job   : 0-new  1-cont  2-samecut
   ICHARG =      2    charge: 1-file 2-atom 10-const
   ISPIN  =      1    spin polarized calculation?
   LNONCOLLINEAR =      F non collinear calculations
   LSORBIT =      F    spin-orbit coupling
   INIWAV =      1    electr: 0-lowe 1-rand  2-diag
   LASPH  =      F    aspherical Exc in radial PAW
   METAGGA=      F    non-selfconsistent MetaGGA calc.

 Electronic Relaxation 1
   ENCUT  =  450.0 eV  33.07 Ry    5.75 a.u.  43.24 43.24 43.24*2*pi/ulx,y,z
   ENINI  =  450.0     initial cutoff
   ENAUG  =  644.9 eV  augmentation charge cutoff
   NELM   =     50;   NELMIN=  5; NELMDL= -7     # of ELM steps 
   EDIFF  = 0.1E-04   stopping-criterion for ELM
   LREAL  =      T    real-space projection
   NLSPLINE    = F    spline interpolate recip. space projectors
   LCOMPAT=      F    compatible to vasp.4.4
   GGA_COMPAT  = T    GGA compatible to vasp.4.4-vasp.4.6
   LMAXPAW     = -100 max onsite density
   LMAXMIX     =    2 max onsite mixed and CHGCAR
   VOSKOWN=      0    Vosko Wilk Nusair interpolation
   ROPT   =   -0.00050  -0.00050
 Ionic relaxation
   EDIFFG = -.2E-01   stopping-criterion for IOM
   NSW    =    300    number of steps for IOM
   NBLOCK =      1;   KBLOCK =    300    inner block; outer block 
   IBRION =      2    ionic relax: 0-MD 1-quasi-New 2-CG
   NFREE  =      2    steps in history (QN), initial steepest desc. (CG)
   ISIF   =      2    stress and relaxation
   IWAVPR =     11    prediction:  0-non 1-charg 2-wave 3-comb
   ISYM   =      2    0-nonsym 1-usesym 2-fastsym
   LCORR  =      T    Harris-Foulkes like correction to forces

   POTIM  = 0.1500    time-step for ionic-motion
   TEIN   =    0.0    initial temperature
   TEBEG  =    0.0;   TEEND  =   0.0 temperature during run
   SMASS  =  -3.00    Nose mass-parameter (am)
   estimated Nose-frequenzy (Omega)   =  0.10E-29 period in steps =****** mass=  -0.143E-25a.u.
   SCALEE = 1.0000    scale energy and forces
   NPACO  =    256;   APACO  = 16.0  distance and # of slots for P.C.
   PSTRESS=    0.0 pullay stress

  Mass of Ions in am
   POMASS =   1.00 12.01
  Ionic Valenz
   ZVAL   =   1.00  4.00
  Atomic Wigner-Seitz radii
   RWIGS  =  -1.00 -1.00
  virtual crystal weights 
   VCA    =   1.00  1.00
   NELECT =      92.0000    total number of electrons
   NUPDOWN=      -1.0000    fix difference up-down

 DOS related values:
   EMIN   =  10.00;   EMAX   =-10.00  energy-range for DOS
   EFERMI =   0.00
   ISMEAR =     0;   SIGMA  =   0.03  broadening in eV -4-tet -1-fermi 0-gaus

 Electronic relaxation 2 (details)
   IALGO  =     68    algorithm
   LDIAG  =      T    sub-space diagonalisation (order eigenvalues)
   LSUBROT=      F    optimize rotation matrix (better conditioning)
   TURBO    =      0    0=normal 1=particle mesh
   IRESTART =      0    0=no restart 2=restart with 2 vectors
   NREBOOT  =      0    no. of reboots
   NMIN     =      0    reboot dimension
   EREF     =   0.00    reference energy to select bands
   IMIX   =      4    mixing-type and parameters
     AMIX     =   0.40;   BMIX     =  1.00
     AMIX_MAG =   1.60;   BMIX_MAG =  1.00
     AMIN     =   0.10
     WC   =   100.;   INIMIX=   1;  MIXPRE=   1;  MAXMIX= -45

 Intra band minimization:
   WEIMIN = 0.0010     energy-eigenvalue tresh-hold
   EBREAK =  0.26E-07  absolut break condition
   DEPER  =   0.30     relativ break condition  

   TIME   =   0.40     timestep for ELM

  volume/ion in A,a.u.               =     332.45      2243.46
  Fermi-wavevector in a.u.,A,eV,Ry     =   0.295618  0.558637  1.189013  0.087390
  Thomas-Fermi vector in A             =   1.159363
 
 Write flags
   LWAVE        =      F    write WAVECAR
   LDOWNSAMPLE  =      F    k-point downsampling of WAVECAR
   LCHARG       =      F    write CHGCAR
   LVTOT        =      F    write LOCPOT, total local potential
   LVHAR        =      F    write LOCPOT, Hartree potential only
   LELF         =      F    write electronic localiz. function (ELF)
   LORBIT       =      0    0 simple, 1 ext, 2 COOP (PROOUT), +10 PAW based schemes


 Dipole corrections
   LMONO  =      F    monopole corrections only (constant potential shift)
   LDIPOL =      T    correct potential (dipole corrections)
   IDIPOL =      4    1-x, 2-y, 3-z, 4-all directions 
   EPSILON=  1.0000000 bulk dielectric constant

 Exchange correlation treatment:
   GGA     =    PE    GGA type
   LEXCH   =     8    internal setting for exchange type
   VOSKOWN=      0    Vosko Wilk Nusair interpolation
   LHFCALC =     F    Hartree Fock is set to
   LHFONE  =     F    Hartree Fock one center treatment
   AEXX    =    0.0000 exact exchange contribution

 Linear response parameters
   LEPSILON=     F    determine dielectric tensor
   LRPA    =     F    only Hartree local field effects (RPA)
   LNABLA  =     F    use nabla operator in PAW spheres
   LVEL    =     F    velocity operator in full k-point grid
   LINTERFAST=   F  fast interpolation
   KINTER  =     0    interpolate to denser k-point grid
   CSHIFT  =0.1000    complex shift for real part using Kramers Kronig
   OMEGAMAX=  -1.0    maximum frequency
   DEG_THRESHOLD= 0.2000000E-02 threshold for treating states as degnerate
   RTIME   =   -0.100 relaxation time in fs
  (WPLASMAI=    0.000 imaginary part of plasma frequency in eV, 0.658/RTIME)
   DFIELD  = 0.0000000 0.0000000 0.0000000 field for delta impulse in time
 
 Orbital magnetization related:
   ORBITALMAG=     F  switch on orbital magnetization
   LCHIMAG   =     F  perturbation theory with respect to B field
   DQ        =  0.001000  dq finite difference perturbation B field
   LLRAUG    =     F  two centre corrections for induced B field



--------------------------------------------------------------------------------------------------------


 conjugate gradient relaxation of ions
   using selective dynamics as specified on POSCAR
   WARNING: If single coordinates had been selected the selection of coordinates
            is made according to the corresponding   d i r e c t   coordinates!
            Don't support selection of single cartesian coordinates -- sorry ...
  !
 charge density and potential will be updated during run
 non-spin polarized calculation
 RMM-DIIS sequential band-by-band and
  variant of blocked Davidson during initial phase
 perform sub-space diagonalisation
    before iterative eigenvector-optimisation
 modified Broyden-mixing scheme, WC =      100.0
 initial mixing is a Kerker type mixing with AMIX =  0.4000 and BMIX =      1.0000
 Hartree-type preconditioning will be used
 using additional bands           50
 real space projection scheme for non local part
 use partial core corrections
 calculate Harris-corrections to forces 
   (improved forces if not selfconsistent)
 use gradient corrections 
 use of overlap-Matrix (Vanderbilt PP)
 Gauss-broadening in eV      SIGMA  =   0.03


--------------------------------------------------------------------------------------------------------


  energy-cutoff  :      450.00
  volume of cell :    15625.00
      direct lattice vectors                 reciprocal lattice vectors
    25.000000000  0.000000000  0.000000000     0.040000000  0.000000000  0.000000000
     0.000000000 25.000000000  0.000000000     0.000000000  0.040000000  0.000000000
     0.000000000  0.000000000 25.000000000     0.000000000  0.000000000  0.040000000

  length of vectors
    25.000000000 25.000000000 25.000000000     0.040000000  0.040000000  0.040000000


 
 k-points in units of 2pi/SCALE and weight: K-POINTS                                
   0.00000000  0.00000000  0.00000000       1.000
 
 k-points in reciprocal lattice and weights: K-POINTS                                
   0.00000000  0.00000000  0.00000000       1.000
 
 position of ions in fractional coordinates (direct lattice) 
   0.34004297  0.80338047  0.62085790
   0.30497857  0.83294007  0.67402790
   0.38357057  0.85550567  0.72149670
   0.39466617  0.87198407  0.65461910
   0.43618897  0.77059647  0.65424310
   0.49998777  0.86829247  0.69007950
   0.47736737  0.85801887  0.62486190
   0.55305497  0.82054287  0.60496710
   0.57832137  0.81682087  0.72377790
   0.59509017  0.86504527  0.67586470
   0.64582817  0.78244807  0.62847950
   0.68772817  0.84603647  0.72453390
   0.68356497  0.86779447  0.65797990
   0.74832737  0.79078447  0.63308790
   0.77251257  0.88689607  0.63333990
   0.82627617  0.84809767  0.65771070
   0.78561417  0.88442407  0.70303150
   0.36104137  0.72423007  0.67485750
   0.29199937  0.73736847  0.67851630
   0.33373217  0.75472407  0.73307710
   0.44053177  0.80946207  0.76957870
   0.49536657  0.77302087  0.74501390
   0.43119377  0.74416167  0.74426510
   0.52559297  0.72505887  0.67548750
   0.57026897  0.72651807  0.62076630
   0.50203257  0.73672807  0.60967950
   0.65978817  0.75098167  0.74569390
   0.67593977  0.71414567  0.68683790
   0.60942377  0.72072487  0.70728950
   0.76374777  0.79240407  0.75491350
   0.81361537  0.77005607  0.70988910
   0.75286617  0.73578447  0.71371510
   0.33967097  0.80781807  0.66450590
   0.39040297  0.83785167  0.68189990
   0.33143097  0.75299007  0.68943270
   0.44226617  0.80390647  0.68195190
   0.49041337  0.83674167  0.66103070
   0.45306057  0.78159007  0.73817950
   0.54218097  0.80554807  0.64490510
   0.58951577  0.82182247  0.68162310
   0.53454657  0.74523527  0.63773830
   0.64362937  0.79312687  0.67106470
   0.69035657  0.83222047  0.68286270
   0.64739737  0.74208167  0.70459990
   0.74779737  0.81229687  0.67140710
   0.78518137  0.86075847  0.66608790
   0.77044937  0.77566447  0.71494470
 
 position of ions in cartesian coordinates  (Angst):
   8.50107417 20.08451184 15.52144740
   7.62446417 20.82350184 16.85069740
   9.58926417 21.38764184 18.03741740
   9.86665417 21.79960184 16.36547740
  10.90472417 19.26491184 16.35607740
  12.49969417 21.70731184 17.25198740
  11.93418417 21.45047184 15.62154740
  13.82637417 20.51357184 15.12417740
  14.45803417 20.42052184 18.09444740
  14.87725417 21.62613184 16.89661740
  16.14570417 19.56120184 15.71198740
  17.19320417 21.15091184 18.11334740
  17.08912417 21.69486184 16.44949740
  18.70818417 19.76961184 15.82719740
  19.31281417 22.17240184 15.83349740
  20.65690417 21.20244184 16.44276740
  19.64035417 22.11060184 17.57578740
   9.02603417 18.10575184 16.87143740
   7.29998417 18.43421184 16.96290740
   8.34330417 18.86810184 18.32692740
  11.01329417 20.23655184 19.23946740
  12.38416417 19.32552184 18.62534740
  10.77984417 18.60404184 18.60662740
  13.13982417 18.12647184 16.88718740
  14.25672417 18.16295184 15.51915740
  12.55081417 18.41820184 15.24198740
  16.49470417 18.77454184 18.64234740
  16.89849417 17.85364184 17.17094740
  15.23559417 18.01812184 17.68223740
  19.09369417 19.81010184 18.87283740
  20.34038417 19.25140184 17.74722740
  18.82165417 18.39461184 17.84287740
   8.49177417 20.19545184 16.61264740
   9.76007417 20.94629184 17.04749740
   8.28577417 18.82475184 17.23581740
  11.05665417 20.09766184 17.04879740
  12.26033417 20.91854184 16.52576740
  11.32651417 19.53975184 18.45448740
  13.55452417 20.13870184 16.12262740
  14.73789417 20.54556184 17.04057740
  13.36366417 18.63088184 15.94345740
  16.09073417 19.82817184 16.77661740
  17.25891417 20.80551184 17.07156740
  16.18493417 18.55204184 17.61499740
  18.69493417 20.30742184 16.78517740
  19.62953417 21.51896184 16.65219740
  19.26123417 19.39161184 17.87361740
 


--------------------------------------------------------------------------------------------------------


 k-point  1 :   0.0000 0.0000 0.0000  plane waves:  338755

 maximum and minimum number of plane-waves per node :    338755   338755

 maximum number of plane-waves:    338755
 maximum index in each direction: 
   IXMAX=   43   IYMAX=   43   IZMAX=   43
   IXMIN=  -43   IYMIN=  -43   IZMIN=  -43


 serial   3D FFT for wavefunctions
 parallel 3D FFT for charge:
    minimum data exchange during FFTs selected (reduces bandwidth)


 total amount of memory used by VASP MPI-rank0   208807. kBytes
=======================================================================

   base      :      30000. kBytes
   nonlr-proj:       4361. kBytes
   fftplans  :      26902. kBytes
   grid      :     136550. kBytes
   one-center:        144. kBytes
   wavefun   :      10850. kBytes
 
     INWAV:  cpu time    0.0000: real time    0.0003
 Broyden mixing: mesh for mixing (old mesh)
   NGX = 87   NGY = 87   NGZ = 87
  (NGX  =280   NGY  =280   NGZ  =280)
  gives a total of 658503 points

 initial charge density was supplied:
 charge density of overlapping atoms calculated
 number of electron      92.0000000 magnetization 
 keeping initial charge density in first step


--------------------------------------------------------------------------------------------------------


 Maximum index for non-local projection operator         1343
 Maximum index for augmentation-charges          188 (set IRDMAX)


--------------------------------------------------------------------------------------------------------


 First call to EWALD:  gamma=   0.071
 Maximum number of real-space cells 3x 3x 3
 Maximum number of reciprocal cells 3x 3x 3

    FEWALD:  cpu time    0.0028: real time    0.0028


--------------------------------------- Iteration      1(   1)  ---------------------------------------


    POTLOK:  cpu time    0.5014: real time    0.5179
    SETDIJ:  cpu time    0.0066: real time    0.0110
     EDDAV:  cpu time    3.0033: real time    3.0438
       DOS:  cpu time    0.0019: real time    0.0050
    --------------------------------------------
      LOOP:  cpu time    3.5131: real time    3.5777

 eigenvalue-minimisations  :   288
 total energy-change (2. order) : 0.2901849E+03  (-0.2183499E+04)
 number of electron      92.0000000 magnetization 
 augmentation part       92.0000000 magnetization 

 DIPCOR: dipole corrections for dipol
 direction  1 min pos    19, direction  2 min pos    65, direction  3 min pos    72,
 dipolmoment           0.000039     -0.000965      0.001018 electrons x Angstroem
 Tr[quadrupol]        81.007679

 energy correction for charged system         0.000000 eV
 dipol+quadrupol energy correction           -0.000000 eV
 added-field ion interaction          0.001265 eV  (added to PSCEN)


 Free energy of the ion-electron system (eV)
  ---------------------------------------------------
  alpha Z        PSCENC =         2.27407748
  Ewald energy   TEWEN  =      9671.46349153
  -Hartree energ DENC   =    -11266.50387346
  -exchange      EXHF   =         0.00000000
  -V(xc)+E(xc)   XCENC  =       273.82855387
  PAW double counting   =      1696.11957365    -1704.94474987
  entropy T*S    EENTRO =        -0.01234343
  eigenvalues    EBANDS =      -988.69024064
  atomic energy  EATOM  =      2606.65040413
  Solvation  Ediel_sol  =         0.00000000
  ---------------------------------------------------
  free energy    TOTEN  =       290.18489325 eV

  energy without entropy =      290.19723668  energy(sigma->0) =      290.19106497


--------------------------------------------------------------------------------------------------------




--------------------------------------- Iteration      1(   2)  ---------------------------------------


     EDDAV:  cpu time    3.8210: real time    3.8253
       DOS:  cpu time    0.0006: real time    0.0006
    --------------------------------------------
      LOOP:  cpu time    3.8216: real time    3.8259

 eigenvalue-minimisations  :   384
 total energy-change (2. order) :-0.4964519E+03  (-0.4881733E+03)
 number of electron      92.0000000 magnetization 
 augmentation part       92.0000000 magnetization 

 DIPCOR: dipole corrections for dipol
 direction  1 min pos    19, direction  2 min pos    65, direction  3 min pos    72,
 dipolmoment           0.000039     -0.000965      0.001018 electrons x Angstroem
 Tr[quadrupol]        81.007679

 energy correction for charged system         0.000000 eV
 dipol+quadrupol energy correction           -0.000000 eV
 added-field ion interaction          0.001265 eV  (added to PSCEN)


 Free energy of the ion-electron system (eV)
  ---------------------------------------------------
  alpha Z        PSCENC =         2.27407748
  Ewald energy   TEWEN  =      9671.46349153
  -Hartree energ DENC   =    -11266.50387346
  -exchange      EXHF   =         0.00000000
  -V(xc)+E(xc)   XCENC  =       273.82855387
  PAW double counting   =      1696.11957365    -1704.94474987
  entropy T*S    EENTRO =        -0.00000000
  eigenvalues    EBANDS =     -1485.15444911
  atomic energy  EATOM  =      2606.65040413
  Solvation  Ediel_sol  =         0.00000000
  ---------------------------------------------------
  free energy    TOTEN  =      -206.26697179 eV

  energy without entropy =     -206.26697179  energy(sigma->0) =     -206.26697179


--------------------------------------------------------------------------------------------------------




--------------------------------------- Iteration      1(   3)  ---------------------------------------


     EDDAV:  cpu time    2.9901: real time    2.9935
       DOS:  cpu time    0.0026: real time    0.0026
    --------------------------------------------
      LOOP:  cpu time    2.9927: real time    2.9961

 eigenvalue-minimisations  :   288
 total energy-change (2. order) :-0.7347390E+02  (-0.7302356E+02)
 number of electron      92.0000000 magnetization 
 augmentation part       92.0000000 magnetization 

 DIPCOR: dipole corrections for dipol
 direction  1 min pos    19, direction  2 min pos    65, direction  3 min pos    72,
 dipolmoment           0.000039     -0.000965      0.001018 electrons x Angstroem
 Tr[quadrupol]        81.007679

 energy correction for charged system         0.000000 eV
 dipol+quadrupol energy correction           -0.000000 eV
 added-field ion interaction          0.001265 eV  (added to PSCEN)


 Free energy of the ion-electron system (eV)
  ---------------------------------------------------
  alpha Z        PSCENC =         2.27407748
  Ewald energy   TEWEN  =      9671.46349153
  -Hartree energ DENC   =    -11266.50387346
  -exchange      EXHF   =         0.00000000
  -V(xc)+E(xc)   XCENC  =       273.82855387
  PAW double counting   =      1696.11957365    -1704.94474987
  entropy T*S    EENTRO =        -0.00000000
  eigenvalues    EBANDS =     -1558.62835050
  atomic energy  EATOM  =      2606.65040413
  Solvation  Ediel_sol  =         0.00000000
  ---------------------------------------------------
  free energy    TOTEN  =      -279.74087318 eV

  energy without entropy =     -279.74087318  energy(sigma->0) =     -279.74087318


--------------------------------------------------------------------------------------------------------




--------------------------------------- Iteration      1(   4)  ---------------------------------------


     EDDAV:  cpu time    2.9850: real time    2.9881
       DOS:  cpu time    0.0016: real time    0.0016
    --------------------------------------------
      LOOP:  cpu time    2.9866: real time    2.9896

 eigenvalue-minimisations  :   288
 total energy-change (2. order) :-0.3041986E+01  (-0.3032899E+01)
 number of electron      92.0000000 magnetization 
 augmentation part       92.0000000 magnetization 

 DIPCOR: dipole corrections for dipol
 direction  1 min pos    19, direction  2 min pos    65, direction  3 min pos    72,
 dipolmoment           0.000039     -0.000965      0.001018 electrons x Angstroem
 Tr[quadrupol]        81.007679

 energy correction for charged system         0.000000 eV
 dipol+quadrupol energy correction           -0.000000 eV
 added-field ion interaction          0.001265 eV  (added to PSCEN)


 Free energy of the ion-electron system (eV)
  ---------------------------------------------------
  alpha Z        PSCENC =         2.27407748
  Ewald energy   TEWEN  =      9671.46349153
  -Hartree energ DENC   =    -11266.50387346
  -exchange      EXHF   =         0.00000000
  -V(xc)+E(xc)   XCENC  =       273.82855387
  PAW double counting   =      1696.11957365    -1704.94474987
  entropy T*S    EENTRO =        -0.00000000
  eigenvalues    EBANDS =     -1561.67033695
  atomic energy  EATOM  =      2606.65040413
  Solvation  Ediel_sol  =         0.00000000
  ---------------------------------------------------
  free energy    TOTEN  =      -282.78285962 eV

  energy without entropy =     -282.78285962  energy(sigma->0) =     -282.78285962


--------------------------------------------------------------------------------------------------------




--------------------------------------- Iteration      1(   5)  ---------------------------------------


     EDDAV:  cpu time    2.9683: real time    2.9704
       DOS:  cpu time    0.0026: real time    0.0026
    --------------------------------------------
      LOOP:  cpu time    2.9708: real time    2.9729

 eigenvalue-minimisations  :   288
 total energy-change (2. order) :-0.8185887E-01  (-0.8184331E-01)
 number of electron      92.0000000 magnetization 
 augmentation part       92.0000000 magnetization 

 DIPCOR: dipole corrections for dipol
 direction  1 min pos    19, direction  2 min pos    65, direction  3 min pos    72,
 dipolmoment           0.000039     -0.000965      0.001018 electrons x Angstroem
 Tr[quadrupol]        81.007679

 energy correction for charged system         0.000000 eV
 dipol+quadrupol energy correction           -0.000000 eV
 added-field ion interaction          0.001265 eV  (added to PSCEN)


 Free energy of the ion-electron system (eV)
  ---------------------------------------------------
  alpha Z        PSCENC =         2.27407748
  Ewald energy   TEWEN  =      9671.46349153
  -Hartree energ DENC   =    -11266.50387346
  -exchange      EXHF   =         0.00000000
  -V(xc)+E(xc)   XCENC  =       273.82855387
  PAW double counting   =      1696.11957365    -1704.94474987
  entropy T*S    EENTRO =        -0.00000000
  eigenvalues    EBANDS =     -1561.75219582
  atomic energy  EATOM  =      2606.65040413
  Solvation  Ediel_sol  =         0.00000000
  ---------------------------------------------------
  free energy    TOTEN  =      -282.86471849 eV

  energy without entropy =     -282.86471849  energy(sigma->0) =     -282.86471849


--------------------------------------------------------------------------------------------------------




--------------------------------------- Iteration      1(   6)  ---------------------------------------


     EDDAV:  cpu time    2.9831: real time    2.9849
       DOS:  cpu time    0.0017: real time    0.0017
    --------------------------------------------
      LOOP:  cpu time    2.9848: real time    2.9865

 eigenvalue-minimisations  :   288
 total energy-change (2. order) :-0.1735562E-03  (-0.1734631E-03)
 number of electron      92.0000000 magnetization 
 augmentation part       92.0000000 magnetization 

 DIPCOR: dipole corrections for dipol
 direction  1 min pos    19, direction  2 min pos    65, direction  3 min pos    72,
 dipolmoment           0.000039     -0.000965      0.001018 electrons x Angstroem
 Tr[quadrupol]        81.007679

 energy correction for charged system         0.000000 eV
 dipol+quadrupol energy correction           -0.000000 eV
 added-field ion interaction          0.001265 eV  (added to PSCEN)


 Free energy of the ion-electron system (eV)
  ---------------------------------------------------
  alpha Z        PSCENC =         2.27407748
  Ewald energy   TEWEN  =      9671.46349153
  -Hartree energ DENC   =    -11266.50387346
  -exchange      EXHF   =         0.00000000
  -V(xc)+E(xc)   XCENC  =       273.82855387
  PAW double counting   =      1696.11957365    -1704.94474987
  entropy T*S    EENTRO =        -0.00000000
  eigenvalues    EBANDS =     -1561.75236937
  atomic energy  EATOM  =      2606.65040413
  Solvation  Ediel_sol  =         0.00000000
  ---------------------------------------------------
  free energy    TOTEN  =      -282.86489205 eV

  energy without entropy =     -282.86489205  energy(sigma->0) =     -282.86489205


--------------------------------------------------------------------------------------------------------




--------------------------------------- Iteration      1(   7)  ---------------------------------------


     EDDAV:  cpu time    3.3857: real time    3.3881
       DOS:  cpu time    0.0013: real time    0.0013
    CHARGE:  cpu time    0.3839: real time    0.3865
    MIXING:  cpu time    0.0138: real time    0.0148
    --------------------------------------------
      LOOP:  cpu time    3.7847: real time    3.7907

 eigenvalue-minimisations  :   336
 total energy-change (2. order) :-0.3800698E-05  (-0.3799981E-05)
 number of electron      91.9999978 magnetization 
 augmentation part        2.5049858 magnetization 

 DIPCOR: dipole corrections for dipol
 direction  1 min pos    19, direction  2 min pos    65, direction  3 min pos    72,
 dipolmoment           0.000039     -0.000965      0.001018 electrons x Angstroem
 Tr[quadrupol]        81.007679

 energy correction for charged system         0.000000 eV
 dipol+quadrupol energy correction           -0.000000 eV
 added-field ion interaction          0.001265 eV  (added to PSCEN)


 Broyden mixing:
  rms(total) = 0.26055E+01    rms(broyden)= 0.26050E+01
  rms(prec ) = 0.27937E+01
  weight for this iteration     100.00

 Free energy of the ion-electron system (eV)
  ---------------------------------------------------
  alpha Z        PSCENC =         2.27407748
  Ewald energy   TEWEN  =      9671.46349153
  -Hartree energ DENC   =    -11266.50387346
  -exchange      EXHF   =         0.00000000
  -V(xc)+E(xc)   XCENC  =       273.82855387
  PAW double counting   =      1696.11957365    -1704.94474987
  entropy T*S    EENTRO =        -0.00000000
  eigenvalues    EBANDS =     -1561.75237317
  atomic energy  EATOM  =      2606.65040413
  Solvation  Ediel_sol  =         0.00000000
  ---------------------------------------------------
  free energy    TOTEN  =      -282.86489585 eV

  energy without entropy =     -282.86489585  energy(sigma->0) =     -282.86489585


--------------------------------------------------------------------------------------------------------




--------------------------------------- Iteration      1(   8)  ---------------------------------------


    POTLOK:  cpu time    0.4533: real time    0.4537
    SETDIJ:  cpu time    0.0026: real time    0.0026
    EDDIAG:  cpu time    0.4245: real time    0.4293
  RMM-DIIS:  cpu time    1.6844: real time    1.6852
    ORTHCH:  cpu time    0.0506: real time    0.0506
       DOS:  cpu time    0.0007: real time    0.0007
    CHARGE:  cpu time    0.2754: real time    0.2754
    MIXING:  cpu time    0.0135: real time    0.0192
    --------------------------------------------
      LOOP:  cpu time    2.9049: real time    2.9167

 eigenvalue-minimisations  :   192
 total energy-change (2. order) : 0.2222492E+02  (-0.3279420E+01)
 number of electron      91.9999982 magnetization 
 augmentation part        2.3082395 magnetization 

 DIPCOR: dipole corrections for dipol
 direction  1 min pos    44, direction  2 min pos    72, direction  3 min pos    55,
 dipolmoment          -0.002460      0.007869      0.004478 electrons x Angstroem
 Tr[quadrupol]        75.022936

 energy correction for charged system         0.000000 eV
 dipol+quadrupol energy correction           -0.000000 eV
 added-field ion interaction         -0.004742 eV  (added to PSCEN)


 Broyden mixing:
  rms(total) = 0.13944E+01    rms(broyden)= 0.13943E+01
  rms(prec ) = 0.14717E+01
  weight for this iteration     100.00

 eigenvalues of (default mixing * dielectric matrix)
  average eigenvalue GAMMA=   1.5525
  1.5525

 Free energy of the ion-electron system (eV)
  ---------------------------------------------------
  alpha Z        PSCENC =         2.26807024
  Ewald energy   TEWEN  =      9671.46349153
  -Hartree energ DENC   =    -11470.21799974
  -exchange      EXHF   =         0.00000000
  -V(xc)+E(xc)   XCENC  =       283.57516208
  PAW double counting   =      3225.01616983    -3235.65626435
  entropy T*S    EENTRO =        -0.00000000
  eigenvalues    EBANDS =     -1343.73901293
  atomic energy  EATOM  =      2606.65040413
  Solvation  Ediel_sol  =         0.00000000
  ---------------------------------------------------
  free energy    TOTEN  =      -260.63997922 eV

  energy without entropy =     -260.63997922  energy(sigma->0) =     -260.63997922


--------------------------------------------------------------------------------------------------------




--------------------------------------- Iteration      1(   9)  ---------------------------------------


    POTLOK:  cpu time    0.4541: real time    0.4542
    SETDIJ:  cpu time    0.0029: real time    0.0029
    EDDIAG:  cpu time    0.4168: real time    0.4173
  RMM-DIIS:  cpu time    1.6648: real time    1.6662
    ORTHCH:  cpu time    0.0512: real time    0.0512
       DOS:  cpu time    0.0002: real time    0.0002
    CHARGE:  cpu time    0.2713: real time    0.2718
    MIXING:  cpu time    0.0142: real time    0.0143
    --------------------------------------------
      LOOP:  cpu time    2.8756: real time    2.8781

 eigenvalue-minimisations  :   192
 total energy-change (2. order) : 0.5173746E+01  (-0.1342685E+01)
 number of electron      91.9999985 magnetization 
 augmentation part        2.1848845 magnetization 

 DIPCOR: dipole corrections for dipol
 direction  1 min pos    35, direction  2 min pos    49, direction  3 min pos    40,
 dipolmoment          -0.037784      0.166305      0.040606 electrons x Angstroem
 Tr[quadrupol]        69.597205

 energy correction for charged system         0.000000 eV
 dipol+quadrupol energy correction           -0.000059 eV
 added-field ion interaction         -0.224104 eV  (added to PSCEN)


 Broyden mixing:
  rms(total) = 0.62603E+00    rms(broyden)= 0.62588E+00
  rms(prec ) = 0.65091E+00
  weight for this iteration     100.00

 eigenvalues of (default mixing * dielectric matrix)
  average eigenvalue GAMMA=   1.8663
  1.5993  2.1334

 Free energy of the ion-electron system (eV)
  ---------------------------------------------------
  alpha Z        PSCENC =         2.04864872
  Ewald energy   TEWEN  =      9671.46349153
  -Hartree energ DENC   =    -11630.58735707
  -exchange      EXHF   =         0.00000000
  -V(xc)+E(xc)   XCENC  =       292.28317689
  PAW double counting   =      5152.87474532    -5164.27275909
  entropy T*S    EENTRO =        -0.00000000
  eigenvalues    EBANDS =     -1185.92658334
  atomic energy  EATOM  =      2606.65040413
  Solvation  Ediel_sol  =         0.00000000
  ---------------------------------------------------
  free energy    TOTEN  =      -255.46623290 eV

  energy without entropy =     -255.46623290  energy(sigma->0) =     -255.46623290


--------------------------------------------------------------------------------------------------------




--------------------------------------- Iteration      1(  10)  ---------------------------------------


    POTLOK:  cpu time    0.4589: real time    0.4590
    SETDIJ:  cpu time    0.0023: real time    0.0023
    EDDIAG:  cpu time    0.4164: real time    0.4169
  RMM-DIIS:  cpu time    1.6811: real time    1.6819
    ORTHCH:  cpu time    0.0510: real time    0.0510
       DOS:  cpu time    0.0004: real time    0.0004
    CHARGE:  cpu time    0.2751: real time    0.2755
    MIXING:  cpu time    0.0145: real time    0.0145
    --------------------------------------------
      LOOP:  cpu time    2.8997: real time    2.9014

 eigenvalue-minimisations  :   192
 total energy-change (2. order) : 0.9589627E+00  (-0.1194941E+00)
 number of electron      91.9999985 magnetization 
 augmentation part        2.1670440 magnetization 

 DIPCOR: dipole corrections for dipol
 direction  1 min pos    29, direction  2 min pos    47, direction  3 min pos    39,
 dipolmoment          -0.014554      0.248255      0.082480 electrons x Angstroem
 Tr[quadrupol]        65.041278

 energy correction for charged system         0.000000 eV
 dipol+quadrupol energy correction           -0.000133 eV
 added-field ion interaction         -0.335391 eV  (added to PSCEN)


 Broyden mixing:
  rms(total) = 0.90682E-01    rms(broyden)= 0.90633E-01
  rms(prec ) = 0.11810E+00
  weight for this iteration     100.00

 eigenvalues of (default mixing * dielectric matrix)
  average eigenvalue GAMMA=   1.7495
  2.3141  1.3275  1.6068

 Free energy of the ion-electron system (eV)
  ---------------------------------------------------
  alpha Z        PSCENC =         1.93728916
  Ewald energy   TEWEN  =      9671.46349153
  -Hartree energ DENC   =    -11689.29821556
  -exchange      EXHF   =         0.00000000
  -V(xc)+E(xc)   XCENC  =       295.88029197
  PAW double counting   =      6338.01363508    -6349.10779839
  entropy T*S    EENTRO =        -0.00000000
  eigenvalues    EBANDS =     -1130.04636814
  atomic energy  EATOM  =      2606.65040413
  Solvation  Ediel_sol  =         0.00000000
  ---------------------------------------------------
  free energy    TOTEN  =      -254.50727023 eV

  energy without entropy =     -254.50727023  energy(sigma->0) =     -254.50727023


--------------------------------------------------------------------------------------------------------




--------------------------------------- Iteration      1(  11)  ---------------------------------------


    POTLOK:  cpu time    0.4560: real time    0.4568
    SETDIJ:  cpu time    0.0027: real time    0.0027
    EDDIAG:  cpu time    0.4182: real time    0.4185
  RMM-DIIS:  cpu time    1.8146: real time    1.8153
    ORTHCH:  cpu time    0.0518: real time    0.0518
       DOS:  cpu time    0.0002: real time    0.0002
    CHARGE:  cpu time    0.2740: real time    0.2743
    MIXING:  cpu time    0.0153: real time    0.0152
    --------------------------------------------
      LOOP:  cpu time    3.0327: real time    3.0349

 eigenvalue-minimisations  :   194
 total energy-change (2. order) : 0.1010979E+00  (-0.1188081E-01)
 number of electron      91.9999985 magnetization 
 augmentation part        2.1598769 magnetization 

 DIPCOR: dipole corrections for dipol
 direction  1 min pos    29, direction  2 min pos    47, direction  3 min pos    40,
 dipolmoment           0.004675      0.265812      0.102309 electrons x Angstroem
 Tr[quadrupol]        62.481164

 energy correction for charged system         0.000000 eV
 dipol+quadrupol energy correction           -0.000157 eV
 added-field ion interaction         -0.354280 eV  (added to PSCEN)


 Broyden mixing:
  rms(total) = 0.51973E-01    rms(broyden)= 0.51964E-01
  rms(prec ) = 0.74592E-01
  weight for this iteration     100.00

 eigenvalues of (default mixing * dielectric matrix)
  average eigenvalue GAMMA=   1.8793
  1.0462  1.4572  2.5069  2.5069

 Free energy of the ion-electron system (eV)
  ---------------------------------------------------
  alpha Z        PSCENC =         1.91837544
  Ewald energy   TEWEN  =      9671.46349153
  -Hartree energ DENC   =    -11713.36222569
  -exchange      EXHF   =         0.00000000
  -V(xc)+E(xc)   XCENC  =       296.63379764
  PAW double counting   =      6474.28177161    -6485.34509017
  entropy T*S    EENTRO =        -0.00000000
  eigenvalues    EBANDS =     -1106.64669681
  atomic energy  EATOM  =      2606.65040413
  Solvation  Ediel_sol  =         0.00000000
  ---------------------------------------------------
  free energy    TOTEN  =      -254.40617233 eV

  energy without entropy =     -254.40617233  energy(sigma->0) =     -254.40617233


--------------------------------------------------------------------------------------------------------




--------------------------------------- Iteration      1(  12)  ---------------------------------------


    POTLOK:  cpu time    0.4557: real time    0.4558
    SETDIJ:  cpu time    0.0021: real time    0.0021
    EDDIAG:  cpu time    0.4173: real time    0.4177
  RMM-DIIS:  cpu time    1.6635: real time    1.6639
    ORTHCH:  cpu time    0.0510: real time    0.0510
       DOS:  cpu time    0.0002: real time    0.0002
    CHARGE:  cpu time    0.2755: real time    0.2758
    MIXING:  cpu time    0.0151: real time    0.0151
    --------------------------------------------
      LOOP:  cpu time    2.8805: real time    2.8816

 eigenvalue-minimisations  :   192
 total energy-change (2. order) : 0.3543724E-01  (-0.7129172E-02)
 number of electron      91.9999985 magnetization 
 augmentation part        2.1548538 magnetization 

 DIPCOR: dipole corrections for dipol
 direction  1 min pos    29, direction  2 min pos    48, direction  3 min pos    41,
 dipolmoment           0.037438      0.263017      0.129379 electrons x Angstroem
 Tr[quadrupol]        58.814731

 energy correction for charged system         0.000000 eV
 dipol+quadrupol energy correction           -0.000169 eV
 added-field ion interaction         -0.336841 eV  (added to PSCEN)


 Broyden mixing:
  rms(total) = 0.34241E-01    rms(broyden)= 0.34237E-01
  rms(prec ) = 0.47061E-01
  weight for this iteration     100.00

 eigenvalues of (default mixing * dielectric matrix)
  average eigenvalue GAMMA=   1.9109
  0.9791  2.4235  1.7828  2.1847  2.1847

 Free energy of the ion-electron system (eV)
  ---------------------------------------------------
  alpha Z        PSCENC =         1.93580245
  Ewald energy   TEWEN  =      9671.46349153
  -Hartree energ DENC   =    -11737.54202564
  -exchange      EXHF   =         0.00000000
  -V(xc)+E(xc)   XCENC  =       296.88147589
  PAW double counting   =      6403.78957509    -6414.81836580
  entropy T*S    EENTRO =        -0.00000000
  eigenvalues    EBANDS =     -1082.73109274
  atomic energy  EATOM  =      2606.65040413
  Solvation  Ediel_sol  =         0.00000000
  ---------------------------------------------------
  free energy    TOTEN  =      -254.37073509 eV

  energy without entropy =     -254.37073509  energy(sigma->0) =     -254.37073509


--------------------------------------------------------------------------------------------------------




--------------------------------------- Iteration      1(  13)  ---------------------------------------


    POTLOK:  cpu time    0.4595: real time    0.4600
    SETDIJ:  cpu time    0.0022: real time    0.0022
    EDDIAG:  cpu time    0.4175: real time    0.4176
  RMM-DIIS:  cpu time    1.6601: real time    1.6608
    ORTHCH:  cpu time    0.0505: real time    0.0505
       DOS:  cpu time    0.0002: real time    0.0002
    CHARGE:  cpu time    0.2761: real time    0.2761
    MIXING:  cpu time    0.0155: real time    0.0155
    --------------------------------------------
      LOOP:  cpu time    2.8816: real time    2.8829

 eigenvalue-minimisations  :   192
 total energy-change (2. order) : 0.4126845E-02  (-0.4887288E-02)
 number of electron      91.9999985 magnetization 
 augmentation part        2.1547946 magnetization 

 DIPCOR: dipole corrections for dipol
 direction  1 min pos    30, direction  2 min pos    49, direction  3 min pos    42,
 dipolmoment           0.062351      0.236327      0.138227 electrons x Angstroem
 Tr[quadrupol]        56.213822

 energy correction for charged system         0.000000 eV
 dipol+quadrupol energy correction           -0.000152 eV
 added-field ion interaction         -0.286017 eV  (added to PSCEN)


 Broyden mixing:
  rms(total) = 0.35118E-01    rms(broyden)= 0.35114E-01
  rms(prec ) = 0.41536E-01
  weight for this iteration     100.00

 eigenvalues of (default mixing * dielectric matrix)
  average eigenvalue GAMMA=   1.9366
  3.8076  2.5229  1.7934  0.9807  1.2574  1.2574

 Free energy of the ion-electron system (eV)
  ---------------------------------------------------
  alpha Z        PSCENC =         1.98664325
  Ewald energy   TEWEN  =      9671.46349153
  -Hartree energ DENC   =    -11751.43858780
  -exchange      EXHF   =         0.00000000
  -V(xc)+E(xc)   XCENC  =       297.12853286
  PAW double counting   =      6429.26484122    -6440.26140958
  entropy T*S    EENTRO =        -0.00000000
  eigenvalues    EBANDS =     -1069.16052385
  atomic energy  EATOM  =      2606.65040413
  Solvation  Ediel_sol  =         0.00000000
  ---------------------------------------------------
  free energy    TOTEN  =      -254.36660825 eV

  energy without entropy =     -254.36660825  energy(sigma->0) =     -254.36660825


--------------------------------------------------------------------------------------------------------




--------------------------------------- Iteration      1(  14)  ---------------------------------------


    POTLOK:  cpu time    0.4565: real time    0.4574
    SETDIJ:  cpu time    0.0022: real time    0.0022
    EDDIAG:  cpu time    0.4178: real time    0.4178
  RMM-DIIS:  cpu time    1.6709: real time    1.6720
    ORTHCH:  cpu time    0.0506: real time    0.0506
       DOS:  cpu time    0.0005: real time    0.0005
    CHARGE:  cpu time    0.2733: real time    0.2733
    MIXING:  cpu time    0.0160: real time    0.0160
    --------------------------------------------
      LOOP:  cpu time    2.8878: real time    2.8900

 eigenvalue-minimisations  :   192
 total energy-change (2. order) :-0.3627552E+00  (-0.1435283E+00)
 number of electron      91.9999985 magnetization 
 augmentation part        2.1491326 magnetization 

 DIPCOR: dipole corrections for dipol
 direction  1 min pos   163, direction  2 min pos   116, direction  3 min pos    76,
 dipolmoment          20.553668     -0.199297     -0.104516 electrons x Angstroem
 Tr[quadrupol]      -340.196818

 energy correction for charged system         0.000000 eV
 dipol+quadrupol energy correction           -0.815563 eV
 added-field ion interaction         -4.850396 eV  (added to PSCEN)


 Broyden mixing:
  rms(total) = 0.90263E-01    rms(broyden)= 0.90234E-01
  rms(prec ) = 0.10210E+00
  weight for this iteration     100.00

 eigenvalues of (default mixing * dielectric matrix)
  average eigenvalue GAMMA=   1.6604
  3.8071  2.5232  1.7932  0.9806  1.2574  1.2574  0.0038

 Free energy of the ion-electron system (eV)
  ---------------------------------------------------
  alpha Z        PSCENC =        -3.39314703
  Ewald energy   TEWEN  =      9671.46349153
  -Hartree energ DENC   =    -11764.61898694
  -exchange      EXHF   =         0.00000000
  -V(xc)+E(xc)   XCENC  =       297.28622615
  PAW double counting   =      6387.63896778    -6398.66603112
  entropy T*S    EENTRO =        -0.00000000
  eigenvalues    EBANDS =     -1051.09028793
  atomic energy  EATOM  =      2606.65040413
  Solvation  Ediel_sol  =         0.00000000
  ---------------------------------------------------
  free energy    TOTEN  =      -254.72936344 eV

  energy without entropy =     -254.72936344  energy(sigma->0) =     -254.72936344


--------------------------------------------------------------------------------------------------------




--------------------------------------- Iteration      1(  15)  ---------------------------------------


    POTLOK:  cpu time    0.4582: real time    0.4590
    SETDIJ:  cpu time    0.0023: real time    0.0023
    EDDIAG:  cpu time    0.4175: real time    0.4175
  RMM-DIIS:  cpu time    1.6811: real time    1.6820
    ORTHCH:  cpu time    0.0507: real time    0.0507
       DOS:  cpu time    0.0003: real time    0.0003
    CHARGE:  cpu time    0.2720: real time    0.2720
    MIXING:  cpu time    0.0168: real time    0.0168
    --------------------------------------------
      LOOP:  cpu time    2.8988: real time    2.9005

 eigenvalue-minimisations  :   192
 total energy-change (2. order) : 0.1161487E+02  (-0.2807603E+01)
 number of electron      91.9999986 magnetization 
 augmentation part        2.1347672 magnetization 

 DIPCOR: dipole corrections for dipol
 direction  1 min pos   180, direction  2 min pos   124, direction  3 min pos    80,
 dipolmoment          87.704461     -0.213054     -0.130358 electrons x Angstroem
 Tr[quadrupol]      -442.091808

 energy correction for charged system         0.000000 eV
 dipol+quadrupol energy correction          -14.848280 eV
 added-field ion interaction        -23.399290 eV  (added to PSCEN)


 Broyden mixing:
  rms(total) = 0.34744E+00    rms(broyden)= 0.34733E+00
  rms(prec ) = 0.40019E+00
  weight for this iteration     100.00

 eigenvalues of (default mixing * dielectric matrix)
  average eigenvalue GAMMA=   1.4536
  3.8091  2.5222  1.7935  0.9804  1.2581  1.2581  0.0044  0.0032

 Free energy of the ion-electron system (eV)
  ---------------------------------------------------
  alpha Z        PSCENC =       -35.97475756
  Ewald energy   TEWEN  =      9671.46349153
  -Hartree energ DENC   =    -11764.61686735
  -exchange      EXHF   =         0.00000000
  -V(xc)+E(xc)   XCENC  =       297.28617500
  PAW double counting   =      6387.61860517    -6398.64558988
  entropy T*S    EENTRO =        -0.00000000
  eigenvalues    EBANDS =     -1006.89595789
  atomic energy  EATOM  =      2606.65040413
  Solvation  Ediel_sol  =         0.00000000
  ---------------------------------------------------
  free energy    TOTEN  =      -243.11449685 eV

  energy without entropy =     -243.11449685  energy(sigma->0) =     -243.11449685


--------------------------------------------------------------------------------------------------------




--------------------------------------- Iteration      1(  16)  ---------------------------------------


    POTLOK:  cpu time    0.4566: real time    0.4576
    SETDIJ:  cpu time    0.0022: real time    0.0022
    EDDIAG:  cpu time    0.4215: real time    0.4218
  RMM-DIIS:  cpu time    1.6668: real time    1.6678
    ORTHCH:  cpu time    0.0557: real time    0.0557
       DOS:  cpu time    0.0004: real time    0.0003
    CHARGE:  cpu time    0.2734: real time    0.2734
    MIXING:  cpu time    0.0170: real time    0.0170
    --------------------------------------------
      LOOP:  cpu time    2.8936: real time    2.8958

 eigenvalue-minimisations  :   192
 total energy-change (2. order) :-0.1121755E+02  (-0.2059906E+01)
 number of electron      91.9999985 magnetization 
 augmentation part        2.1463734 magnetization 

 DIPCOR: dipole corrections for dipol
 direction  1 min pos   182, direction  2 min pos   125, direction  3 min pos    80,
 dipolmoment          -0.300462     -0.212292     -0.130350 electrons x Angstroem
 Tr[quadrupol]      -506.521081

 energy correction for charged system         0.000000 eV
 dipol+quadrupol energy correction           -0.000294 eV
 added-field ion interaction         -0.183481 eV  (added to PSCEN)


 Broyden mixing:
  rms(total) = 0.48729E-01    rms(broyden)= 0.48442E-01
  rms(prec ) = 0.53891E-01
  weight for this iteration     100.00

 eigenvalues of (default mixing * dielectric matrix)
  average eigenvalue GAMMA=   1.3028
  3.8339  2.5219  1.7854  0.9825  1.2611  1.2611  0.0716  0.0006  0.0068

 Free energy of the ion-electron system (eV)
  ---------------------------------------------------
  alpha Z        PSCENC =         2.08903719
  Ewald energy   TEWEN  =      9671.46349153
  -Hartree energ DENC   =    -11764.62643171
  -exchange      EXHF   =         0.00000000
  -V(xc)+E(xc)   XCENC  =       297.28875630
  PAW double counting   =      6387.63078575    -6398.65778779
  entropy T*S    EENTRO =        -0.00000000
  eigenvalues    EBANDS =     -1056.17030146
  atomic energy  EATOM  =      2606.65040413
  Solvation  Ediel_sol  =         0.00000000
  ---------------------------------------------------
  free energy    TOTEN  =      -254.33204608 eV

  energy without entropy =     -254.33204608  energy(sigma->0) =     -254.33204608


--------------------------------------------------------------------------------------------------------




--------------------------------------- Iteration      1(  17)  ---------------------------------------


    POTLOK:  cpu time    0.4570: real time    0.4581
    SETDIJ:  cpu time    0.0023: real time    0.0023
    EDDIAG:  cpu time    0.4204: real time    0.4205
  RMM-DIIS:  cpu time    1.8259: real time    1.8277
    ORTHCH:  cpu time    0.0505: real time    0.0506
       DOS:  cpu time    0.0004: real time    0.0004
    CHARGE:  cpu time    0.2749: real time    0.2752
    MIXING:  cpu time    0.0187: real time    0.0187
    --------------------------------------------
      LOOP:  cpu time    3.0501: real time    3.0535

 eigenvalue-minimisations  :   197
 total energy-change (2. order) :-0.1946913E-01  (-0.5387734E-01)
 number of electron      91.9999985 magnetization 
 augmentation part        2.1491579 magnetization 

 DIPCOR: dipole corrections for dipol
 direction  1 min pos   182, direction  2 min pos   125, direction  3 min pos    80,
 dipolmoment          -0.281378     -0.206469     -0.126842 electrons x Angstroem
 Tr[quadrupol]      -506.583465

 energy correction for charged system         0.000000 eV
 dipol+quadrupol energy correction           -0.000266 eV
 added-field ion interaction         -0.185900 eV  (added to PSCEN)


 Broyden mixing:
  rms(total) = 0.19403E-01    rms(broyden)= 0.19216E-01
  rms(prec ) = 0.23027E-01
  weight for this iteration     100.00

 eigenvalues of (default mixing * dielectric matrix)
  average eigenvalue GAMMA=   1.4007
  4.4174  2.5693  1.8015  1.6179  1.6179  0.9815  0.7680  0.2260  0.0065  0.0006

 Free energy of the ion-electron system (eV)
  ---------------------------------------------------
  alpha Z        PSCENC =         2.08664615
  Ewald energy   TEWEN  =      9671.46349153
  -Hartree energ DENC   =    -11765.08099962
  -exchange      EXHF   =         0.00000000
  -V(xc)+E(xc)   XCENC  =       297.28554052
  PAW double counting   =      6386.87642789    -6397.90034869
  entropy T*S    EENTRO =        -0.00000000
  eigenvalues    EBANDS =     -1055.73267711
  atomic energy  EATOM  =      2606.65040413
  Solvation  Ediel_sol  =         0.00000000
  ---------------------------------------------------
  free energy    TOTEN  =      -254.35151521 eV

  energy without entropy =     -254.35151521  energy(sigma->0) =     -254.35151521


--------------------------------------------------------------------------------------------------------




--------------------------------------- Iteration      1(  18)  ---------------------------------------


    POTLOK:  cpu time    0.4791: real time    0.4796
    SETDIJ:  cpu time    0.0181: real time    0.0181
    EDDIAG:  cpu time    0.4922: real time    0.4924
  RMM-DIIS:  cpu time    1.6864: real time    1.6872
    ORTHCH:  cpu time    0.0508: real time    0.0509
       DOS:  cpu time    0.0004: real time    0.0004
    CHARGE:  cpu time    0.2756: real time    0.2756
    MIXING:  cpu time    0.0186: real time    0.0232
    --------------------------------------------
      LOOP:  cpu time    3.0213: real time    3.0274

 eigenvalue-minimisations  :   192
 total energy-change (2. order) : 0.8881044E+01  (-0.3159890E+01)
 number of electron      91.9999985 magnetization 
 augmentation part        2.1322799 magnetization 

 DIPCOR: dipole corrections for dipol
 direction  1 min pos   183, direction  2 min pos   126, direction  3 min pos    81,
 dipolmoment         -80.755667     -0.155774     -0.101478 electrons x Angstroem
 Tr[quadrupol]      -507.155571

 energy correction for charged system         0.000000 eV
 dipol+quadrupol energy correction          -12.588080 eV
 added-field ion interaction         83.356910 eV  (added to PSCEN)


 Broyden mixing:
  rms(total) = 0.37210E+00    rms(broyden)= 0.37198E+00
  rms(prec ) = 0.42385E+00
  weight for this iteration     100.00

 eigenvalues of (default mixing * dielectric matrix)
  average eigenvalue GAMMA=   1.2950
  4.5495  2.5285  1.8709  1.6388  1.6388  0.9804  0.7941  0.2232  0.0140  0.0065
  0.0006

 Free energy of the ion-electron system (eV)
  ---------------------------------------------------
  alpha Z        PSCENC =        73.04164308
  Ewald energy   TEWEN  =      9671.46349153
  -Hartree energ DENC   =    -11768.71057874
  -exchange      EXHF   =         0.00000000
  -V(xc)+E(xc)   XCENC  =       297.28674234
  PAW double counting   =      6383.17775826    -6394.19432228
  entropy T*S    EENTRO =        -0.00000000
  eigenvalues    EBANDS =     -1114.18560956
  atomic energy  EATOM  =      2606.65040413
  Solvation  Ediel_sol  =         0.00000000
  ---------------------------------------------------
  free energy    TOTEN  =      -245.47047125 eV

  energy without entropy =     -245.47047125  energy(sigma->0) =     -245.47047125


--------------------------------------------------------------------------------------------------------




--------------------------------------- Iteration      1(  19)  ---------------------------------------


    POTLOK:  cpu time    0.4555: real time    0.4565
    SETDIJ:  cpu time    0.0025: real time    0.0025
    EDDIAG:  cpu time    0.4226: real time    0.4227
  RMM-DIIS:  cpu time    1.8684: real time    1.8692
    ORTHCH:  cpu time    0.0510: real time    0.0510
       DOS:  cpu time    0.0004: real time    0.0004
    CHARGE:  cpu time    0.2740: real time    0.2741
    MIXING:  cpu time    0.0214: real time    0.0259
    --------------------------------------------
      LOOP:  cpu time    3.0958: real time    3.1023

 eigenvalue-minimisations  :   205
 total energy-change (2. order) :-0.1190497E+00  (-0.1672274E+00)
 number of electron      91.9999985 magnetization 
 augmentation part        2.1279187 magnetization 

 DIPCOR: dipole corrections for dipol
 direction  1 min pos   183, direction  2 min pos   126, direction  3 min pos    81,
 dipolmoment         -80.769712     -0.153892     -0.100376 electrons x Angstroem
 Tr[quadrupol]      -507.133789

 energy correction for charged system         0.000000 eV
 dipol+quadrupol energy correction          -12.592737 eV
 added-field ion interaction         83.376019 eV  (added to PSCEN)


 Broyden mixing:
  rms(total) = 0.43288E+00    rms(broyden)= 0.43286E+00
  rms(prec ) = 0.49351E+00
  weight for this iteration     100.00

 eigenvalues of (default mixing * dielectric matrix)
  average eigenvalue GAMMA=   1.1997
  4.5966  2.5181  1.9359  1.6306  1.6306  0.9784  0.7940  0.2376  0.0339  0.0339
  0.0065  0.0006

 Free energy of the ion-electron system (eV)
  ---------------------------------------------------
  alpha Z        PSCENC =        73.05609440
  Ewald energy   TEWEN  =      9671.46349153
  -Hartree energ DENC   =    -11769.06003699
  -exchange      EXHF   =         0.00000000
  -V(xc)+E(xc)   XCENC  =       297.29833292
  PAW double counting   =      6384.74167209    -6395.75789099
  entropy T*S    EENTRO =        -0.00000000
  eigenvalues    EBANDS =     -1113.98158806
  atomic energy  EATOM  =      2606.65040413
  Solvation  Ediel_sol  =         0.00000000
  ---------------------------------------------------
  free energy    TOTEN  =      -245.58952098 eV

  energy without entropy =     -245.58952098  energy(sigma->0) =     -245.58952098


--------------------------------------------------------------------------------------------------------




--------------------------------------- Iteration      1(  20)  ---------------------------------------


    POTLOK:  cpu time    0.4555: real time    0.4564
    SETDIJ:  cpu time    0.0026: real time    0.0026
    EDDIAG:  cpu time    0.4200: real time    0.4201
  RMM-DIIS:  cpu time    2.0342: real time    2.0359
    ORTHCH:  cpu time    0.0508: real time    0.0509
       DOS:  cpu time    0.0004: real time    0.0005
    CHARGE:  cpu time    0.2734: real time    0.2746
    MIXING:  cpu time    0.0199: real time    0.0199
    --------------------------------------------
      LOOP:  cpu time    3.2567: real time    3.2608

 eigenvalue-minimisations  :   231
 total energy-change (2. order) :-0.1136556E-01  (-0.1158716E-01)
 number of electron      91.9999985 magnetization 
 augmentation part        2.1275443 magnetization 

 DIPCOR: dipole corrections for dipol
 direction  1 min pos   183, direction  2 min pos   126, direction  3 min pos    81,
 dipolmoment         -80.771069     -0.152451     -0.099292 electrons x Angstroem
 Tr[quadrupol]      -507.163093

 energy correction for charged system         0.000000 eV
 dipol+quadrupol energy correction          -12.593564 eV
 added-field ion interaction         83.381151 eV  (added to PSCEN)


 Broyden mixing:
  rms(total) = 0.44777E+00    rms(broyden)= 0.44777E+00
  rms(prec ) = 0.51023E+00
  weight for this iteration     100.00

 eigenvalues of (default mixing * dielectric matrix)
  average eigenvalue GAMMA=   1.1265
  4.6622  2.5353  1.9385  1.6455  1.6455  0.9784  0.8040  0.2199  0.0816  0.0816
  0.0450  0.0065  0.0006

 Free energy of the ion-electron system (eV)
  ---------------------------------------------------
  alpha Z        PSCENC =        73.06039975
  Ewald energy   TEWEN  =      9671.46349153
  -Hartree energ DENC   =    -11769.11643273
  -exchange      EXHF   =         0.00000000
  -V(xc)+E(xc)   XCENC  =       297.30197170
  PAW double counting   =      6385.35182037    -6396.36825078
  entropy T*S    EENTRO =        -0.00000000
  eigenvalues    EBANDS =     -1113.94429051
  atomic energy  EATOM  =      2606.65040413
  Solvation  Ediel_sol  =         0.00000000
  ---------------------------------------------------
  free energy    TOTEN  =      -245.60088655 eV

  energy without entropy =     -245.60088655  energy(sigma->0) =     -245.60088655


--------------------------------------------------------------------------------------------------------




--------------------------------------- Iteration      1(  21)  ---------------------------------------


    POTLOK:  cpu time    0.4616: real time    0.4619
    SETDIJ:  cpu time    0.0027: real time    0.0027
    EDDIAG:  cpu time    0.4173: real time    0.4174
  RMM-DIIS:  cpu time    1.8422: real time    1.8431
    ORTHCH:  cpu time    0.0504: real time    0.0504
       DOS:  cpu time    0.0005: real time    0.0005
    CHARGE:  cpu time    0.2758: real time    0.2767
    MIXING:  cpu time    0.0208: real time    0.0208
    --------------------------------------------
      LOOP:  cpu time    3.0713: real time    3.0735

 eigenvalue-minimisations  :   202
 total energy-change (2. order) :-0.1196082E-03  (-0.2972443E-03)
 number of electron      91.9999985 magnetization 
 augmentation part        2.1272490 magnetization 

 DIPCOR: dipole corrections for dipol
 direction  1 min pos   183, direction  2 min pos   126, direction  3 min pos    81,
 dipolmoment         -80.773849     -0.151069     -0.098592 electrons x Angstroem
 Tr[quadrupol]      -507.152971

 energy correction for charged system         0.000000 eV
 dipol+quadrupol energy correction          -12.594315 eV
 added-field ion interaction         83.385779 eV  (added to PSCEN)


 Broyden mixing:
  rms(total) = 0.44873E+00    rms(broyden)= 0.44873E+00
  rms(prec ) = 0.51146E+00
  weight for this iteration     100.00

 eigenvalues of (default mixing * dielectric matrix)
  average eigenvalue GAMMA=   1.0852
  4.6779  2.5591  1.8913  1.6744  1.6744  0.9776  0.8021  0.2884  0.2355  0.2355
  0.0847  0.0847  0.0065  0.0006

 Free energy of the ion-electron system (eV)
  ---------------------------------------------------
  alpha Z        PSCENC =        73.06427686
  Ewald energy   TEWEN  =      9671.46349153
  -Hartree energ DENC   =    -11769.18153216
  -exchange      EXHF   =         0.00000000
  -V(xc)+E(xc)   XCENC  =       297.30179088
  PAW double counting   =      6384.59032866    -6395.60695562
  entropy T*S    EENTRO =        -0.00000000
  eigenvalues    EBANDS =     -1113.88281043
  atomic energy  EATOM  =      2606.65040413
  Solvation  Ediel_sol  =         0.00000000
  ---------------------------------------------------
  free energy    TOTEN  =      -245.60100616 eV

  energy without entropy =     -245.60100616  energy(sigma->0) =     -245.60100616


--------------------------------------------------------------------------------------------------------




--------------------------------------- Iteration      1(  22)  ---------------------------------------


    POTLOK:  cpu time    0.4520: real time    0.4530
    SETDIJ:  cpu time    0.0025: real time    0.0025
    EDDIAG:  cpu time    0.4174: real time    0.4180
  RMM-DIIS:  cpu time    1.8259: real time    1.8264
    ORTHCH:  cpu time    0.0511: real time    0.0511
       DOS:  cpu time    0.0004: real time    0.0004
    CHARGE:  cpu time    0.2742: real time    0.2747
    MIXING:  cpu time    0.0223: real time    0.0223
    --------------------------------------------
      LOOP:  cpu time    3.0458: real time    3.0484

 eigenvalue-minimisations  :   199
 total energy-change (2. order) :-0.2958162E-02  (-0.5541591E-04)
 number of electron      91.9999985 magnetization 
 augmentation part        2.1272831 magnetization 

 DIPCOR: dipole corrections for dipol
 direction  1 min pos   183, direction  2 min pos   126, direction  3 min pos    81,
 dipolmoment         -80.776619     -0.147247     -0.096895 electrons x Angstroem
 Tr[quadrupol]      -507.114249

 energy correction for charged system         0.000000 eV
 dipol+quadrupol energy correction          -12.594561 eV
 added-field ion interaction         83.393779 eV  (added to PSCEN)


 Broyden mixing:
  rms(total) = 0.44897E+00    rms(broyden)= 0.44897E+00
  rms(prec ) = 0.51182E+00
  weight for this iteration     100.00

 eigenvalues of (default mixing * dielectric matrix)
  average eigenvalue GAMMA=   1.0764
  4.6615  2.5489  1.9498  1.6406  1.6406  0.9785  0.7916  0.5122  0.5122  0.3576
  0.3576  0.0936  0.0936  0.0006  0.0065

 Free energy of the ion-electron system (eV)
  ---------------------------------------------------
  alpha Z        PSCENC =        73.07203071
  Ewald energy   TEWEN  =      9671.46349153
  -Hartree energ DENC   =    -11768.99747871
  -exchange      EXHF   =         0.00000000
  -V(xc)+E(xc)   XCENC  =       297.29143863
  PAW double counting   =      6383.59671901    -6394.61267183
  entropy T*S    EENTRO =        -0.00000000
  eigenvalues    EBANDS =     -1114.06789779
  atomic energy  EATOM  =      2606.65040413
  Solvation  Ediel_sol  =         0.00000000
  ---------------------------------------------------
  free energy    TOTEN  =      -245.60396432 eV

  energy without entropy =     -245.60396432  energy(sigma->0) =     -245.60396432


--------------------------------------------------------------------------------------------------------




--------------------------------------- Iteration      1(  23)  ---------------------------------------


    POTLOK:  cpu time    0.4557: real time    0.4561
    SETDIJ:  cpu time    0.0023: real time    0.0023
    EDDIAG:  cpu time    0.4165: real time    0.4174
  RMM-DIIS:  cpu time    1.6611: real time    1.6696
    ORTHCH:  cpu time    0.0508: real time    0.0511
       DOS:  cpu time    0.0004: real time    0.0004
    CHARGE:  cpu time    0.2750: real time    0.2765
    MIXING:  cpu time    0.0215: real time    0.0226
    --------------------------------------------
      LOOP:  cpu time    2.8834: real time    2.8961

 eigenvalue-minimisations  :   192
 total energy-change (2. order) :-0.1883873E-01  (-0.2939592E-03)
 number of electron      91.9999985 magnetization 
 augmentation part        2.1273701 magnetization 

 DIPCOR: dipole corrections for dipol
 direction  1 min pos   183, direction  2 min pos   126, direction  3 min pos    81,
 dipolmoment         -80.798588     -0.132489     -0.090996 electrons x Angstroem
 Tr[quadrupol]      -506.911767

 energy correction for charged system         0.000000 eV
 dipol+quadrupol energy correction          -12.601675 eV
 added-field ion interaction         83.442075 eV  (added to PSCEN)


 Broyden mixing:
  rms(total) = 0.44901E+00    rms(broyden)= 0.44901E+00
  rms(prec ) = 0.51241E+00
  weight for this iteration     100.00

 eigenvalues of (default mixing * dielectric matrix)
  average eigenvalue GAMMA=   1.1010
  4.6418  2.5474  1.8106  1.7117  1.7117  0.9505  0.9505  0.9766  0.7970  0.4830
  0.4209  0.4209  0.0931  0.0931  0.0006  0.0065

 Free energy of the ion-electron system (eV)
  ---------------------------------------------------
  alpha Z        PSCENC =        73.11321272
  Ewald energy   TEWEN  =      9671.46349153
  -Hartree energ DENC   =    -11768.61710947
  -exchange      EXHF   =         0.00000000
  -V(xc)+E(xc)   XCENC  =       297.26575149
  PAW double counting   =      6381.80147163    -6392.81681684
  entropy T*S    EENTRO =        -0.00000000
  eigenvalues    EBANDS =     -1114.48320823
  atomic energy  EATOM  =      2606.65040413
  Solvation  Ediel_sol  =         0.00000000
  ---------------------------------------------------
  free energy    TOTEN  =      -245.62280305 eV

  energy without entropy =     -245.62280305  energy(sigma->0) =     -245.62280305


--------------------------------------------------------------------------------------------------------




--------------------------------------- Iteration      1(  24)  ---------------------------------------


    POTLOK:  cpu time    0.4576: real time    0.4611
    SETDIJ:  cpu time    0.0022: real time    0.0022
    EDDIAG:  cpu time    0.4156: real time    0.4184
  RMM-DIIS:  cpu time    1.6534: real time    1.6623
    ORTHCH:  cpu time    0.0508: real time    0.0508
       DOS:  cpu time    0.0004: real time    0.0004
    CHARGE:  cpu time    0.2750: real time    0.2754
    MIXING:  cpu time    0.0244: real time    0.0248
    --------------------------------------------
      LOOP:  cpu time    2.8793: real time    2.8955

 eigenvalue-minimisations  :   192
 total energy-change (2. order) :-0.8696828E+01  (-0.3649440E+01)
 number of electron      91.9999985 magnetization 
 augmentation part        2.1454003 magnetization 

 DIPCOR: dipole corrections for dipol
 direction  1 min pos    56, direction  2 min pos    63, direction  3 min pos    50,
 dipolmoment           0.142798      0.138393      0.090413 electrons x Angstroem
 Tr[quadrupol]        52.228894

 energy correction for charged system         0.000000 eV
 dipol+quadrupol energy correction           -0.000092 eV
 added-field ion interaction          0.072713 eV  (added to PSCEN)


 Broyden mixing:
  rms(total) = 0.96533E-01    rms(broyden)= 0.96185E-01
  rms(prec ) = 0.10611E+00
  weight for this iteration     100.00

 eigenvalues of (default mixing * dielectric matrix)
  average eigenvalue GAMMA=   1.0391
  4.6741  2.5295  1.7540  1.7385  1.7385  0.9432  0.9432  0.9791  0.7958  0.4718
  0.4149  0.4149  0.0931  0.0931  0.0745  0.0065  0.0006

 Free energy of the ion-electron system (eV)
  ---------------------------------------------------
  alpha Z        PSCENC =         2.34543320
  Ewald energy   TEWEN  =      9671.46349153
  -Hartree energ DENC   =    -11767.88744963
  -exchange      EXHF   =         0.00000000
  -V(xc)+E(xc)   XCENC  =       297.22525331
  PAW double counting   =      6378.40699148    -6389.42326334
  entropy T*S    EENTRO =        -0.00000000
  eigenvalues    EBANDS =     -1053.10049170
  atomic energy  EATOM  =      2606.65040413
  Solvation  Ediel_sol  =         0.00000000
  ---------------------------------------------------
  free energy    TOTEN  =      -254.31963103 eV

  energy without entropy =     -254.31963103  energy(sigma->0) =     -254.31963103


--------------------------------------------------------------------------------------------------------




--------------------------------------- Iteration      1(  25)  ---------------------------------------


    POTLOK:  cpu time    0.4594: real time    0.4609
    SETDIJ:  cpu time    0.0024: real time    0.0024
    EDDIAG:  cpu time    0.4175: real time    0.4180
  RMM-DIIS:  cpu time    1.6946: real time    1.6980
    ORTHCH:  cpu time    0.0509: real time    0.0510
       DOS:  cpu time    0.0003: real time    0.0003
    CHARGE:  cpu time    0.2759: real time    0.2760
    MIXING:  cpu time    0.0254: real time    0.0256
    --------------------------------------------
      LOOP:  cpu time    2.9263: real time    2.9323

 eigenvalue-minimisations  :   192
 total energy-change (2. order) : 0.3471935E+01  (-0.7995257E+00)
 number of electron      91.9999985 magnetization 
 augmentation part        2.1451461 magnetization 

 DIPCOR: dipole corrections for dipol
 direction  1 min pos   168, direction  2 min pos   119, direction  3 min pos    78,
 dipolmoment         -47.657861     -0.117999     -0.069199 electrons x Angstroem
 Tr[quadrupol]      -308.489619

 energy correction for charged system         0.000000 eV
 dipol+quadrupol energy correction           -4.384109 eV
 added-field ion interaction         25.856782 eV  (added to PSCEN)


 Broyden mixing:
  rms(total) = 0.17015E+00    rms(broyden)= 0.17009E+00
[...]
 Tr[quadrupol]        51.398662

 energy correction for charged system         0.000000 eV
 dipol+quadrupol energy correction           -0.000012 eV
 added-field ion interaction          0.036375 eV  (added to PSCEN)


 eigenvalues of (default mixing * dielectric matrix)
  average eigenvalue GAMMA=   1.9805
  1.9805

  free energy =  -0.254718662857E+03  energy without entropy=  -0.254718662857E+03


--------------------------------------------------------------------------------------------------------




--------------------------------------- Iteration    169(   3)  ---------------------------------------


    POTLOK:  cpu time    0.7208: real time    0.7223
    SETDIJ:  cpu time    0.0151: real time    0.0151
    EDDIAG:  cpu time    0.6185: real time    0.6192
  RMM-DIIS:  cpu time    1.4115: real time    1.4120
    ORTHCH:  cpu time    0.0526: real time    0.0526
       DOS:  cpu time    0.0005: real time    0.0005
    CHARGE:  cpu time    0.2695: real time    0.2698
    MIXING:  cpu time    0.0137: real time    0.0137
    --------------------------------------------
      LOOP:  cpu time    3.1022: real time    3.1052

 eigenvalue-minimisations  :   146
 total energy-change (2. order) :-0.1217713E-06  (-0.7386086E-06)
 number of electron      92.0000022 magnetization 
 augmentation part        2.1381798 magnetization 

 DIPCOR: dipole corrections for dipol
 direction  1 min pos    37, direction  2 min pos    62, direction  3 min pos    56,
 dipolmoment           0.039275     -0.005445      0.068325 electrons x Angstroem
 Tr[quadrupol]        51.393253

 energy correction for charged system         0.000000 eV
 dipol+quadrupol energy correction           -0.000012 eV
 added-field ion interaction          0.037309 eV  (added to PSCEN)


 eigenvalues of (default mixing * dielectric matrix)
  average eigenvalue GAMMA=   1.6897
  1.0160  2.3634

  free energy =  -0.254718662979E+03  energy without entropy=  -0.254718662979E+03


--------------------------------------------------------------------------------------------------------




--------------------------------------- Iteration    169(   4)  ---------------------------------------


    POTLOK:  cpu time    0.4833: real time    0.4835
    SETDIJ:  cpu time    0.0022: real time    0.0022
    EDDIAG:  cpu time    0.4220: real time    0.4220
  RMM-DIIS:  cpu time    1.4066: real time    1.4077
    ORTHCH:  cpu time    0.0519: real time    0.0519
       DOS:  cpu time    0.0005: real time    0.0005
    CHARGE:  cpu time    0.2704: real time    0.2704
    MIXING:  cpu time    0.0181: real time    0.0181
    --------------------------------------------
      LOOP:  cpu time    2.6550: real time    2.6564

 eigenvalue-minimisations  :   146
 total energy-change (2. order) :-0.2147781E-06  (-0.1160192E-06)
 number of electron      92.0000022 magnetization 
 augmentation part        2.1381818 magnetization 

 DIPCOR: dipole corrections for dipol
 direction  1 min pos    38, direction  2 min pos    62, direction  3 min pos    56,
 dipolmoment           0.039286     -0.005467      0.068326 electrons x Angstroem
 Tr[quadrupol]        51.385835

 energy correction for charged system         0.000000 eV
 dipol+quadrupol energy correction           -0.000012 eV
 added-field ion interaction          0.038578 eV  (added to PSCEN)


 eigenvalues of (default mixing * dielectric matrix)
  average eigenvalue GAMMA=   1.9502
  1.0174  2.4165  2.4165

  free energy =  -0.254718663194E+03  energy without entropy=  -0.254718663194E+03


--------------------------------------------------------------------------------------------------------




--------------------------------------- Iteration    169(   5)  ---------------------------------------


    POTLOK:  cpu time    0.4724: real time    0.4735
    SETDIJ:  cpu time    0.0022: real time    0.0022
    EDDIAG:  cpu time    0.4295: real time    0.4297
  RMM-DIIS:  cpu time    1.2865: real time    1.2871
    ORTHCH:  cpu time    0.0517: real time    0.0517
       DOS:  cpu time    0.0005: real time    0.0005
    --------------------------------------------
      LOOP:  cpu time    2.2428: real time    2.2446

 eigenvalue-minimisations  :   110
 total energy-change (2. order) :-0.1134058E-06  (-0.1273145E-07)
 number of electron      92.0000022 magnetization 
 augmentation part        2.1381818 magnetization 

 DIPCOR: dipole corrections for dipol
 direction  1 min pos    39, direction  2 min pos    63, direction  3 min pos    57,
 dipolmoment           0.039295     -0.005511      0.068332 electrons x Angstroem
 Tr[quadrupol]        51.366868

 energy correction for charged system         0.000000 eV
 dipol+quadrupol energy correction           -0.000012 eV
 added-field ion interaction          0.041854 eV  (added to PSCEN)


  free energy =  -0.254718663307E+03  energy without entropy=  -0.254718663307E+03


--------------------------------------------------------------------------------------------------------




------------------------ aborting loop because EDIFF is reached ----------------------------------------


    CHARGE:  cpu time    0.2698: real time    0.2701
    FORLOC:  cpu time    0.1034: real time    0.1034
    FORNL :  cpu time    0.5372: real time    0.5377
    STRESS:  cpu time    1.5743: real time    1.5752
    FORCOR:  cpu time    0.4060: real time    0.4062
    FORHAR:  cpu time    0.1867: real time    0.1870
    MIXING:  cpu time    0.0130: real time    0.0130
    OFIELD:  cpu time    0.0000: real time    0.0001

  Number of pair interactions contributing to vdW energy:   21473
  Edisp (eV):   -1.53365
    FORVDW:  cpu time    0.0031: real time    0.0031

  FORCE on cell =-STRESS in cart. coord.  units (eV):
  Direction    XX          YY          ZZ          XY          YZ          ZX
  --------------------------------------------------------------------------------------
  Alpha Z     2.27281     2.27281     2.27281
  Ewald    7524.55822  1402.05356   811.54463   224.97151  -309.84060   155.74181
  Hartree  7904.14002  2208.98408  1726.16448   200.54124  -249.79404   130.21196
  E(xc)    -323.79404  -324.47952  -324.64043     0.01857    -0.08930     0.04393
  Local  -16219.16239 -4396.04722 -3310.46277  -426.66748   565.83784  -288.71538
  n-local  -150.00853  -150.56589  -152.46223     0.10366    -0.97502     0.42187
  augment    -1.31130    -1.37670    -1.49294     0.01176    -0.06069     0.02742
  Kinetic  1263.30480  1258.15999  1248.02191     1.27290    -5.23094     2.37670
  Fock        0.00000     0.00000     0.00000     0.00000     0.00000     0.00000
  vdW        -1.63617    -0.50227    -0.34246    -0.24160     0.17229    -0.15834
  -------------------------------------------------------------------------------------
  Total      -1.63658    -1.50117    -1.39700     0.01056     0.01955    -0.05002
  in kB      -0.16781    -0.15393    -0.14325     0.00108     0.00200    -0.00513
  external pressure =       -0.15 kB  Pullay stress =        0.00 kB



--------------------------------------------------------------------------------------------------------



  FREE ENERGIE OF THE ION-ELECTRON SYSTEM (eV)
  ---------------------------------------------------
  free  energy   TOTEN  =      -256.25230934 eV

  energy  without entropy=     -256.25230934  energy(sigma->0) =     -256.25230934
 
 d Force = 0.8127436E-05[-0.610E-06, 0.169E-04]  d Energy = 0.8680307E-05-0.553E-06
 d Force = 0.1877476E+00[ 0.188E+00, 0.188E+00]  d Ewald  = 0.1877476E+00 0.509E-09


--------------------------------------------------------------------------------------------------------


    POTLOK:  cpu time    0.4734: real time    0.4735


--------------------------------------------------------------------------------------------------------




--------------------------------------------------------------------------------------------------------


    WAVPRE:  cpu time    0.1263: real time    0.1278
    FEWALD:  cpu time    0.0027: real time    0.0027
    ORTHCH:  cpu time    0.2216: real time    0.2216
     LOOP+:  cpu time   20.8306: real time   20.8643


--------------------------------------- Iteration    170(   1)  ---------------------------------------


    POTLOK:  cpu time    0.4731: real time    0.4789
    SETDIJ:  cpu time    0.0022: real time    0.0022
     EDDAV:  cpu time    3.0018: real time    3.0069
       DOS:  cpu time    0.0008: real time    0.0008
    CHARGE:  cpu time    0.2762: real time    0.2764
    MIXING:  cpu time    0.0146: real time    0.0146
    --------------------------------------------
      LOOP:  cpu time    3.7688: real time    3.7798

 eigenvalue-minimisations  :   288
 total energy-change (2. order) :-0.1127192E-03  (-0.2564344E-02)
 number of electron      92.0000022 magnetization 
 augmentation part        2.1382035 magnetization 

 DIPCOR: dipole corrections for dipol
 direction  1 min pos    39, direction  2 min pos    63, direction  3 min pos    57,
 dipolmoment           0.039293     -0.005528      0.068334 electrons x Angstroem
 Tr[quadrupol]        51.366628

 energy correction for charged system         0.000000 eV
 dipol+quadrupol energy correction           -0.000012 eV
 added-field ion interaction          0.041864 eV  (added to PSCEN)


  free energy =  -0.254718775913E+03  energy without entropy=  -0.254718775913E+03


--------------------------------------------------------------------------------------------------------




--------------------------------------- Iteration    170(   2)  ---------------------------------------


    POTLOK:  cpu time    0.4879: real time    0.4893
    SETDIJ:  cpu time    0.0023: real time    0.0023
    EDDIAG:  cpu time    0.4171: real time    0.4173
  RMM-DIIS:  cpu time    1.7097: real time    1.7111
    ORTHCH:  cpu time    0.1209: real time    0.1210
       DOS:  cpu time    0.0004: real time    0.0004
    CHARGE:  cpu time    0.2832: real time    0.2838
    MIXING:  cpu time    0.0182: real time    0.0182
    --------------------------------------------
      LOOP:  cpu time    3.0397: real time    3.0434

 eigenvalue-minimisations  :   192
 total energy-change (2. order) :-0.9245195E-05  (-0.2789370E-04)
 number of electron      92.0000022 magnetization 
 augmentation part        2.1382048 magnetization 

 DIPCOR: dipole corrections for dipol
 direction  1 min pos    38, direction  2 min pos    62, direction  3 min pos    55,
 dipolmoment           0.039241     -0.005496      0.068357 electrons x Angstroem
 Tr[quadrupol]        51.396683

 energy correction for charged system         0.000000 eV
 dipol+quadrupol energy correction           -0.000012 eV
 added-field ion interaction          0.036406 eV  (added to PSCEN)


 eigenvalues of (default mixing * dielectric matrix)
  average eigenvalue GAMMA=   2.0284
  2.0284

  free energy =  -0.254718785158E+03  energy without entropy=  -0.254718785158E+03


--------------------------------------------------------------------------------------------------------




--------------------------------------- Iteration    170(   3)  ---------------------------------------


    POTLOK:  cpu time    0.4839: real time    0.4858
    SETDIJ:  cpu time    0.0022: real time    0.0022
    EDDIAG:  cpu time    0.4195: real time    0.4205
  RMM-DIIS:  cpu time    1.5624: real time    1.5669
    ORTHCH:  cpu time    0.0520: real time    0.0523
       DOS:  cpu time    0.0004: real time    0.0004
    CHARGE:  cpu time    0.2737: real time    0.2745
    MIXING:  cpu time    0.0136: real time    0.0136
    --------------------------------------------
      LOOP:  cpu time    2.8077: real time    2.8160

 eigenvalue-minimisations  :   176
 total energy-change (2. order) :-0.9379892E-06  (-0.3131797E-05)
 number of electron      92.0000022 magnetization 
 augmentation part        2.1382003 magnetization 

 DIPCOR: dipole corrections for dipol
 direction  1 min pos    37, direction  2 min pos    62, direction  3 min pos    56,
 dipolmoment           0.039219     -0.005486      0.068356 electrons x Angstroem
 Tr[quadrupol]        51.390829

 energy correction for charged system         0.000000 eV
 dipol+quadrupol energy correction           -0.000012 eV
 added-field ion interaction          0.037310 eV  (added to PSCEN)


 eigenvalues of (default mixing * dielectric matrix)
  average eigenvalue GAMMA=   1.6996
  1.0056  2.3935

  free energy =  -0.254718786096E+03  energy without entropy=  -0.254718786096E+03


--------------------------------------------------------------------------------------------------------




--------------------------------------- Iteration    170(   4)  ---------------------------------------


    POTLOK:  cpu time    0.4727: real time    0.4737
    SETDIJ:  cpu time    0.0022: real time    0.0022
    EDDIAG:  cpu time    0.4288: real time    0.4289
  RMM-DIIS:  cpu time    1.4279: real time    1.4307
    ORTHCH:  cpu time    0.0519: real time    0.0519
       DOS:  cpu time    0.0003: real time    0.0003
    CHARGE:  cpu time    0.2693: real time    0.2697
    MIXING:  cpu time    0.0143: real time    0.0143
    --------------------------------------------
      LOOP:  cpu time    2.6674: real time    2.6716

 eigenvalue-minimisations  :   146
 total energy-change (2. order) :-0.3169444E-06  (-0.2207925E-06)
 number of electron      92.0000022 magnetization 
 augmentation part        2.1382006 magnetization 

 DIPCOR: dipole corrections for dipol
 direction  1 min pos    38, direction  2 min pos    62, direction  3 min pos    56,
 dipolmoment           0.039236     -0.005509      0.068334 electrons x Angstroem
 Tr[quadrupol]        51.383260

 energy correction for charged system         0.000000 eV
 dipol+quadrupol energy correction           -0.000012 eV
 added-field ion interaction          0.038577 eV  (added to PSCEN)


 eigenvalues of (default mixing * dielectric matrix)
  average eigenvalue GAMMA=   1.8905
  0.9995  2.3361  2.3361

  free energy =  -0.254718786413E+03  energy without entropy=  -0.254718786413E+03


--------------------------------------------------------------------------------------------------------




--------------------------------------- Iteration    170(   5)  ---------------------------------------


    POTLOK:  cpu time    0.4828: real time    0.4835
    SETDIJ:  cpu time    0.0023: real time    0.0023
    EDDIAG:  cpu time    0.4187: real time    0.4191
  RMM-DIIS:  cpu time    1.4141: real time    1.4148
    ORTHCH:  cpu time    0.0517: real time    0.0517
       DOS:  cpu time    0.0003: real time    0.0003
    --------------------------------------------
      LOOP:  cpu time    2.3698: real time    2.3717

 eigenvalue-minimisations  :   146
 total energy-change (2. order) :-0.7908056E-07  (-0.1176858E-06)
 number of electron      92.0000022 magnetization 
 augmentation part        2.1382006 magnetization 

 DIPCOR: dipole corrections for dipol
 direction  1 min pos    38, direction  2 min pos    62, direction  3 min pos    56,
 dipolmoment           0.039246     -0.005553      0.068296 electrons x Angstroem
 Tr[quadrupol]        51.382451

 energy correction for charged system         0.000000 eV
 dipol+quadrupol energy correction           -0.000012 eV
 added-field ion interaction          0.038611 eV  (added to PSCEN)


  free energy =  -0.254718786492E+03  energy without entropy=  -0.254718786492E+03


--------------------------------------------------------------------------------------------------------




------------------------ aborting loop because EDIFF is reached ----------------------------------------


    CHARGE:  cpu time    0.2751: real time    0.2751
    FORLOC:  cpu time    0.1153: real time    0.1153
    FORNL :  cpu time    0.5387: real time    0.5391
    STRESS:  cpu time    1.5738: real time    1.5805
    FORCOR:  cpu time    0.3974: real time    0.4029
    FORHAR:  cpu time    0.1867: real time    0.1869
    MIXING:  cpu time    0.0130: real time    0.0130
    OFIELD:  cpu time    0.0001: real time    0.0001

  Number of pair interactions contributing to vdW energy:   21472
  Edisp (eV):   -1.53361
    FORVDW:  cpu time    0.0031: real time    0.0031

  FORCE on cell =-STRESS in cart. coord.  units (eV):
  Direction    XX          YY          ZZ          XY          YZ          ZX
  --------------------------------------------------------------------------------------
  Alpha Z     2.27281     2.27281     2.27281
  Ewald    7524.22539  1402.09511   811.60091   225.15258  -309.96904   155.79831
  Hartree  7903.91506  2208.98797  1726.16097   200.66200  -249.87569   130.23205
  E(xc)    -323.79518  -324.47997  -324.64105     0.01876    -0.08942     0.04411
  Local  -16218.62049 -4396.08838 -3310.49826  -426.96936   566.04642  -288.78031
  n-local  -150.01294  -150.56777  -152.46453     0.10607    -0.97622     0.42103
  augment    -1.31112    -1.37657    -1.49302     0.01181    -0.06069     0.02735
  Kinetic  1263.33043  1258.15037  1248.01787     1.27061    -5.22048     2.36570
  Fock        0.00000     0.00000     0.00000     0.00000     0.00000     0.00000
  vdW        -1.63630    -0.50222    -0.34257    -0.24178     0.17214    -0.15847
  -------------------------------------------------------------------------------------
  Total      -1.63234    -1.50865    -1.38687     0.01069     0.02703    -0.05022
  in kB      -0.16738    -0.15470    -0.14221     0.00110     0.00277    -0.00515
  external pressure =       -0.15 kB  Pullay stress =        0.00 kB



--------------------------------------------------------------------------------------------------------



  FREE ENERGIE OF THE ION-ELECTRON SYSTEM (eV)
  ---------------------------------------------------
  free  energy   TOTEN  =      -256.25239953 eV

  energy  without entropy=     -256.25239953  energy(sigma->0) =     -256.25239953
 
 d Force = 0.9010353E-04[ 0.560E-04, 0.124E-03]  d Energy = 0.9018889E-04-0.854E-07
 d Force = 0.2349991E+00[ 0.236E+00, 0.234E+00]  d Ewald  = 0.2349990E+00 0.251E-07


--------------------------------------------------------------------------------------------------------


    POTLOK:  cpu time    0.4760: real time    0.4764


--------------------------------------------------------------------------------------------------------


 Conjugate gradient step on ions:
 trial-energy change:   -0.000090  1 .order   -0.000090   -0.000124   -0.000056
  (g-gl).g = 0.722E-04      g.g   = 0.673E-04  gl.gl    = 0.941E-04
 g(Force)  = 0.673E-04   g(Stress)= 0.000E+00 ortho     =-0.945E-06
 gamma     =   0.76715
 trial     =   1.86636
 opt step  =   3.40112  (harmonic =   3.40112) maximal distance =0.00328754
 next E    =  -256.252422   (d E  =  -0.00011)


--------------------------------------------------------------------------------------------------------


  
 reached required accuracy - stopping structural energy minimisation
     LOOP+:  cpu time   18.2415: real time   18.2856
    4ORBIT:  cpu time    0.0000: real time    0.0005

 total amount of memory used by VASP MPI-rank0   208807. kBytes
=======================================================================

   base      :      30000. kBytes
   nonlr-proj:       4361. kBytes
   fftplans  :      26902. kBytes
   grid      :     136550. kBytes
   one-center:        144. kBytes
   wavefun   :      10850. kBytes
 
  
  
 General timing and accounting informations for this job:
 ========================================================
  
                  Total CPU time used (sec):     3709.113
                            User time (sec):     3352.783
                          System time (sec):      356.329
                         Elapsed time (sec):     3731.570
  
                   Maximum memory used (kb):      822132.
                   Average memory used (kb):           0.
  
                          Minor page faults:     10297503
                          Major page faults:            0
                 Voluntary context switches:        24392
