 vasp.5.3.2 13Sep12 (build Oct 24 2012 13:28:27) complex                        
  
 executed on             LinuxIFC date 2016.06.11  03:32:01
 running on    4 total cores
 distrk:  each k-point on    4 cores,    1 groups
 distr:  one band on NCORES_PER_BAND=   1 cores,    4 groups


--------------------------------------------------------------------------------------------------------


 INCAR:
 POTCAR:    PAW_PBE Ru 04Feb2005                  
 POTCAR:    PAW_PBE Ru 04Feb2005                  
  local pseudopotential read in
  partial core-charges read in
  partial kinetic energy density read in
  atomic valenz-charges read in
  non local Contribution for L=           2  read in
    real space projection operators read in
  non local Contribution for L=           2  read in
    real space projection operators read in
  non local Contribution for L=           0  read in
    real space projection operators read in
  non local Contribution for L=           0  read in
    real space projection operators read in
  non local Contribution for L=           1  read in
    real space projection operators read in
  non local Contribution for L=           1  read in
    real space projection operators read in
    PAW grid and wavefunctions read in
 
   number of l-projection  operators is LMAX  =           6
   number of lm-projection operators is LMMAX =          18
 
 Optimization of the real space projectors (new method)

 maximal supplied QI-value         = 13.98
 optimisation between [QCUT,QGAM] = [ 10.77, 21.68] = [ 32.47,131.56] Ry 
 Optimized for a Real-space Cutoff    1.51 Angstroem

   l    n(q)    QCUT    max X(q) W(low)/X(q) W(high)/X(q)  e(spline) 
   2      9    10.768    61.733    0.26E-03    0.97E-04    0.28E-06
   2      9    10.768    59.886    0.26E-03    0.10E-03    0.29E-06
   0     10    10.768    23.358    0.12E-03    0.28E-03    0.38E-06
   0     10    10.768    11.320    0.93E-04    0.23E-03    0.31E-06
   1      9    10.768    14.765    0.48E-03    0.21E-03    0.19E-06
   1      9    10.768     8.283    0.36E-03    0.16E-03    0.15E-06
  PAW_PBE Ru 04Feb2005                  :
 energy of atom  1       EATOM= -454.8837
 kinetic energy error for atom=    0.0028 (will be added to EATOM!!)
 
 
 POSCAR: Ru-2r3×2r3                             
  positions in direct lattice
  velocities in cartesian coordinates
  No initial velocities read in
 exchange correlation table for  LEXCH =        8
   RHO(1)=    0.500       N(1)  =     2000
   RHO(2)=  100.500       N(2)  =     4000
 


--------------------------------------------------------------------------------------------------------


 ion  position               nearest neighbor table
   1  0.000  0.167  0.000-  14 2.65  13 2.65  18 2.65   9 2.71   5 2.71   2 2.71   6 2.71  11 2.71
                             3 2.71
   2  0.333  0.000  0.000-  16 2.65  21 2.65  14 2.65  12 2.71   4 2.71   1 2.71   3 2.71  10 2.71
                             9 2.71
   3  0.167  0.333  0.000-  19 2.65  15 2.65  14 2.65  11 2.71   7 2.71   4 2.71   2 2.71   1 2.71
                             8 2.71
   4  0.500  0.167  0.000-  17 2.65  16 2.65  15 2.65  12 2.71   2 2.71   3 2.71   5 2.71   8 2.71
                             6 2.71
   5  0.833  0.000  0.000-  13 2.65  24 2.65  17 2.65   9 2.71   1 2.71   4 2.71   6 2.71   7 2.71
                            12 2.71
   6  0.667  0.333  0.000-  22 2.65  18 2.65  17 2.65   8 2.71  10 2.71   1 2.71   5 2.71  11 2.71
                             4 2.71
   7  0.000  0.667  0.000-  20 2.65  19 2.65  24 2.65  11 2.71   3 2.71  12 2.71   8 2.71   5 2.71
                             9 2.71
   8  0.333  0.500  0.000-  22 2.65  15 2.65  20 2.65   6 2.71  10 2.71   7 2.71   4 2.71   9 2.71
                             3 2.71
   9  0.167  0.833  0.000-  13 2.65  21 2.65  20 2.65   5 2.71   1 2.71  10 2.71   8 2.71   7 2.71
                             2 2.71
  10  0.500  0.667  0.000-  23 2.65  22 2.65  21 2.65   8 2.71   6 2.71  11 2.71   9 2.71   2 2.71
                            12 2.71
  11  0.833  0.500  0.000-  19 2.65  18 2.65  23 2.65   3 2.71   7 2.71  10 2.71  12 2.71   1 2.71
                             6 2.71
  12  0.667  0.833  0.000-  16 2.65  24 2.65  23 2.65   2 2.71   4 2.71   7 2.71  11 2.71   5 2.71
                            10 2.71
  13  0.000  0.000  0.107-   5 2.65   9 2.65   1 2.65  29 2.70  33 2.70  25 2.70  24 2.71  14 2.71
                            17 2.71  21 2.71  20 2.71  18 2.71
  14  0.167  0.167  0.107-   1 2.65   2 2.65   3 2.65  25 2.70  26 2.70  27 2.70  18 2.71  21 2.71
                            13 2.71  16 2.71  19 2.71  15 2.71
  15  0.333  0.333  0.107-   8 2.65   4 2.65   3 2.65  32 2.70  28 2.70  27 2.70  17 2.71  22 2.71
                            20 2.71  19 2.71  16 2.71  14 2.71
  16  0.500  0.000  0.107-   2 2.65  12 2.65   4 2.65  26 2.70  36 2.70  28 2.70  21 2.71  17 2.71
                            24 2.71  14 2.71  15 2.71  23 2.71
  17  0.667  0.167  0.107-   4 2.65   5 2.65   6 2.65  28 2.70  29 2.70  30 2.70  15 2.71  24 2.71
                            16 2.71  13 2.71  22 2.71  18 2.71
  18  0.833  0.333  0.107-  11 2.65   1 2.65   6 2.65  35 2.70  25 2.70  30 2.70  14 2.71  23 2.71
                            19 2.71  22 2.71  13 2.71  17 2.71
  19  0.000  0.500  0.107-   3 2.65  11 2.65   7 2.65  27 2.70  35 2.70  31 2.70  20 2.71  18 2.71
                            23 2.71  15 2.71  24 2.71  14 2.71
  20  0.167  0.667  0.107-   7 2.65   8 2.65   9 2.65  31 2.70  32 2.70  33 2.70  24 2.71  15 2.71
                            19 2.71  22 2.71  13 2.71  21 2.71
  21  0.333  0.833  0.107-   2 2.65  10 2.65   9 2.65  26 2.70  34 2.70  33 2.70  23 2.71  14 2.71
                            16 2.71  13 2.71  22 2.71  20 2.71
  22  0.500  0.500  0.107-   6 2.65   8 2.65  10 2.65  30 2.70  32 2.70  34 2.70  23 2.71  15 2.71
                            18 2.71  20 2.71  17 2.71  21 2.71
  23  0.667  0.667  0.107-  10 2.65  11 2.65  12 2.65  34 2.70  35 2.70  36 2.70  21 2.71  22 2.71
                            18 2.71  19 2.71  16 2.71  24 2.71
  24  0.833  0.833  0.107-   5 2.65   7 2.65  12 2.65  29 2.70  31 2.70  36 2.70  20 2.71  13 2.71
                            17 2.71  16 2.71  19 2.71  23 2.71
  25  0.000  0.167  0.217-  38 2.62  37 2.62  42 2.62  14 2.70  13 2.70  18 2.70  33 2.71  29 2.71
                            26 2.71  30 2.71  35 2.71  27 2.71
  26  0.333  0.000  0.217-  40 2.62  45 2.62  38 2.62  16 2.70  21 2.70  14 2.70  36 2.71  28 2.71
                            25 2.71  27 2.71  34 2.71  33 2.71
  27  0.167  0.333  0.217-  43 2.62  39 2.62  38 2.62  19 2.70  15 2.70  14 2.70  35 2.71  31 2.71
                            28 2.71  26 2.71  25 2.71  32 2.71
  28  0.500  0.167  0.217-  41 2.62  40 2.62  39 2.62  17 2.70  16 2.70  15 2.70  36 2.71  26 2.71
                            27 2.71  29 2.71  32 2.71  30 2.71
  29  0.833  0.000  0.217-  37 2.62  48 2.62  41 2.62  13 2.70  24 2.70  17 2.70  33 2.71  25 2.71
                            28 2.71  30 2.71  31 2.71  36 2.71
  30  0.667  0.333  0.217-  46 2.62  42 2.62  41 2.62  22 2.70  18 2.70  17 2.70  32 2.71  34 2.71
                            25 2.71  29 2.71  35 2.71  28 2.71
  31  0.000  0.667  0.217-  44 2.62  43 2.62  48 2.62  20 2.70  19 2.70  24 2.70  35 2.71  27 2.71
                            36 2.71  32 2.71  29 2.71  33 2.71
  32  0.333  0.500  0.217-  46 2.62  39 2.62  44 2.62  22 2.70  15 2.70  20 2.70  30 2.71  34 2.71
                            31 2.71  28 2.71  33 2.71  27 2.71
  33  0.167  0.833  0.217-  37 2.62  45 2.62  44 2.62  13 2.70  21 2.70  20 2.70  29 2.71  25 2.71
                            34 2.71  32 2.71  31 2.71  26 2.71
  34  0.500  0.667  0.217-  47 2.62  46 2.62  45 2.62  23 2.70  22 2.70  21 2.70  32 2.71  30 2.71
                            35 2.71  33 2.71  26 2.71  36 2.71
  35  0.833  0.500  0.217-  43 2.62  42 2.62  47 2.62  19 2.70  18 2.70  23 2.70  27 2.71  31 2.71
                            34 2.71  36 2.71  25 2.71  30 2.71
  36  0.667  0.833  0.217-  40 2.62  48 2.62  47 2.62  16 2.70  24 2.70  23 2.70  26 2.71  28 2.71
                            31 2.71  35 2.71  29 2.71  34 2.71
  37  0.000  0.000  0.322-  29 2.62  33 2.62  25 2.62  38 2.71  48 2.71  45 2.71  41 2.71  42 2.71
                            44 2.71
  38  0.167  0.167  0.322-  25 2.62  26 2.62  27 2.62  42 2.71  37 2.71  45 2.71  40 2.71  43 2.71
                            39 2.71
  39  0.333  0.333  0.322-  32 2.62  28 2.62  27 2.62  41 2.71  44 2.71  46 2.71  43 2.71  40 2.71
                            38 2.71
  40  0.500  0.000  0.322-  26 2.62  36 2.62  28 2.62  41 2.71  45 2.71  38 2.71  48 2.71  47 2.71
                            39 2.71
  41  0.667  0.167  0.322-  28 2.62  29 2.62  30 2.62  39 2.71  40 2.71  48 2.71  37 2.71  46 2.71
                            42 2.71
  42  0.833  0.333  0.322-  35 2.62  25 2.62  30 2.62  38 2.71  43 2.71  47 2.71  46 2.71  37 2.71
                            41 2.71
  43  0.000  0.500  0.322-  27 2.62  35 2.62  31 2.62  42 2.71  44 2.71  39 2.71  47 2.71  38 2.71
                            48 2.71
  44  0.167  0.667  0.322-  31 2.62  32 2.62  33 2.62  48 2.71  43 2.71  39 2.71  46 2.71  37 2.71
                            45 2.71
  45  0.333  0.833  0.322-  26 2.62  34 2.62  33 2.62  47 2.71  40 2.71  38 2.71  37 2.71  46 2.71
                            44 2.71
  46  0.500  0.500  0.322-  30 2.62  32 2.62  34 2.62  39 2.71  47 2.71  44 2.71  42 2.71  45 2.71
                            41 2.71
  47  0.667  0.667  0.322-  34 2.62  35 2.62  36 2.62  45 2.71  42 2.71  46 2.71  43 2.71  40 2.71
                            48 2.71
  48  0.833  0.833  0.322-  29 2.62  31 2.62  36 2.62  44 2.71  41 2.71  37 2.71  40 2.71  43 2.71
                            47 2.71
 
  LATTYP: Found a hexagonal cell.
 ALAT       =     9.3949750306
 C/A-ratio  =     2.1287975684
  
  Lattice vectors:
  
 A1 = (   4.6974875153,  -8.1362870444,   0.0000000000)
 A2 = (  -9.3949750306,   0.0000000000,   0.0000000000)
 A3 = (   0.0000000000,   0.0000000000, -20.0000000000)


Analysis of symmetry for initial positions (statically):
=====================================================================
 Subroutine PRICEL returns following result:
 
  LATTYP: Found a hexagonal cell.
 ALAT       =     2.7120956815
 C/A-ratio  =     7.3743710949
  
  Lattice vectors:
  
 A1 = (  -2.3487437576,  -1.3560478407,   0.0000000000)
 A2 = (   0.0000000000,   2.7120956815,   0.0000000000)
 A3 = (   0.0000000000,   0.0000000000, -20.0000000000)
 
  12 primitive cells build up your supercell.
 

 Routine SETGRP: Setting up the symmetry group for a 
 hexagonal supercell.


 Subroutine GETGRP returns: Found  6 space group operations
 (whereof  6 operations were pure point group operations)
 out of a pool of 24 trial point group operations.


The static configuration has the point symmetry C_3v.


Analysis of symmetry for dynamics (positions and initial velocities):
=====================================================================
 Subroutine PRICEL returns following result:
 
  LATTYP: Found a hexagonal cell.
 ALAT       =     2.7120956815
 C/A-ratio  =     7.3743710949
  
  Lattice vectors:
  
 A1 = (  -2.3487437576,  -1.3560478407,   0.0000000000)
 A2 = (   0.0000000000,   2.7120956815,   0.0000000000)
 A3 = (   0.0000000000,   0.0000000000, -20.0000000000)
 
  12 primitive cells build up your supercell.
 

 Routine SETGRP: Setting up the symmetry group for a 
 hexagonal supercell.


 Subroutine GETGRP returns: Found  6 space group operations
 (whereof  6 operations were pure point group operations)
 out of a pool of 24 trial point group operations.


The dynamic configuration has the point symmetry C_3v.


Analysis of constrained symmetry for selective dynamics:
=====================================================================
 Subroutine PRICEL returns following result:
 
  LATTYP: Found a hexagonal cell.
 ALAT       =     2.7120956815
 C/A-ratio  =     7.3743710949
  
  Lattice vectors:
  
 A1 = (  -2.3487437576,  -1.3560478407,   0.0000000000)
 A2 = (   0.0000000000,   2.7120956815,   0.0000000000)
 A3 = (   0.0000000000,   0.0000000000, -20.0000000000)
 
  12 primitive cells build up your supercell.
 

 Routine SETGRP: Setting up the symmetry group for a 
 hexagonal supercell.


 Subroutine GETGRP returns: Found  6 space group operations
 (whereof  6 operations were pure point group operations)
 out of a pool of 24 trial point group operations.


The constrained configuration has the point symmetry C_3v.
 
 
 KPOINTS: K-POINTS                                

Automatic generation of k-mesh.
Space group operators:
 irot       det(A)        alpha          n_x          n_y          n_z        tau_x        tau_y        tau_z
    1     1.000000     0.000000     1.000000     0.000000     0.000000     0.000000     0.000000     0.000000
    2     1.000000   120.000000     0.000000     0.000000     1.000000     0.000000     0.000000     0.000000
    3     1.000000   120.000000     0.000000     0.000000    -1.000000     0.000000     0.000000     0.000000
    4    -1.000000   179.999999     0.866025    -0.500000     0.000000     0.000000     0.000000     0.000000
    5    -1.000000   180.000000     0.866025     0.500000     0.000000     0.000000     0.000000     0.000000
    6    -1.000000   180.000000     0.000000     1.000000     0.000000     0.000000     0.000000     0.000000
 
 Subroutine IBZKPT returns following result:
 ===========================================
 
 Found      3 irreducible k-points:
 
 Following reciprocal coordinates:
            Coordinates               Weight
  0.000000  0.000000  0.000000      1.000000
  0.333333  0.000000  0.000000      6.000000
 -0.333333  0.333333  0.000000      2.000000
 
 Following cartesian coordinates:
            Coordinates               Weight
  0.000000  0.000000  0.000000      1.000000
  0.035480 -0.020484  0.000000      6.000000
 -0.035480  0.061453  0.000000      2.000000
 


--------------------------------------------------------------------------------------------------------




 Dimension of arrays:
   k-points           NKPTS =      3   k-points in BZ     NKDIM =      3   number of bands    NBANDS=    256
   number of dos      NEDOS =    301   number of ions     NIONS =     48
   non local maximal  LDIM  =      6   non local SUM 2l+1 LMDIM =     18
   total plane-waves  NPLWV = 270000
   max r-space proj   IRMAX =   2591   max aug-charges    IRDMAX=  12143
   dimension x,y,z NGX =    50 NGY =   50 NGZ =  108
   dimension x,y,z NGXF=   100 NGYF=  100 NGZF=  216
   support grid    NGXF=   100 NGYF=  100 NGZF=  216
   ions per type =              48
 NGX,Y,Z   is equivalent  to a cutoff of   8.85,  8.85,  8.98 a.u.
 NGXF,Y,Z  is equivalent  to a cutoff of  17.70, 17.70, 17.95 a.u.


 I would recommend the setting:
   dimension x,y,z NGX =    49 NGY =   49 NGZ =  104
 SYSTEM =  Birch-Murnaghan                         
 POSCAR =  Ru-2r3×2r3                             

 Startparameter for this run:
   NWRITE =      0    write-flag & timer
   PREC   = normal    normal or accurate (medium, high low for compatibility)
   ISTART =      0    job   : 0-new  1-cont  2-samecut
   ICHARG =      2    charge: 1-file 2-atom 10-const
   ISPIN  =      1    spin polarized calculation?
   LNONCOLLINEAR =      F non collinear calculations
   LSORBIT =      F    spin-orbit coupling
   INIWAV =      1    electr: 0-lowe 1-rand  2-diag
   LASPH  =      F    aspherical Exc in radial PAW
   METAGGA=      F    non-selfconsistent MetaGGA calc.

 Electronic Relaxation 1
   ENCUT  =  450.0 eV  33.07 Ry    5.75 a.u.  16.25 16.25 34.59*2*pi/ulx,y,z
   ENINI  =  450.0     initial cutoff
   ENAUG  =  333.5 eV  augmentation charge cutoff
   NELM   =     60;   NELMIN=  5; NELMDL= -7     # of ELM steps 
   EDIFF  = 0.1E-05   stopping-criterion for ELM
   LREAL  =      T    real-space projection
   NLSPLINE    = F    spline interpolate recip. space projectors
   LCOMPAT=      F    compatible to vasp.4.4
   GGA_COMPAT  = T    GGA compatible to vasp.4.4-vasp.4.6
   LMAXPAW     = -100 max onsite density
   LMAXMIX     =    2 max onsite mixed and CHGCAR
   VOSKOWN=      0    Vosko Wilk Nusair interpolation
   ROPT   =   -0.00050
 Ionic relaxation
   EDIFFG = -.5E-02   stopping-criterion for IOM
   NSW    =     50    number of steps for IOM
   NBLOCK =      1;   KBLOCK =     50    inner block; outer block 
   IBRION =      1    ionic relax: 0-MD 1-quasi-New 2-CG
   NFREE  =      0    steps in history (QN), initial steepest desc. (CG)
   ISIF   =      2    stress and relaxation
   IWAVPR =     11    prediction:  0-non 1-charg 2-wave 3-comb
   ISYM   =      2    0-nonsym 1-usesym 2-fastsym
   LCORR  =      T    Harris-Foulkes like correction to forces

   POTIM  = 0.2500    time-step for ionic-motion
   TEIN   =    0.0    initial temperature
   TEBEG  =    0.0;   TEEND  =   0.0 temperature during run
   SMASS  =  -3.00    Nose mass-parameter (am)
   estimated Nose-frequenzy (Omega)   =  0.10E-29 period in steps =****** mass=  -0.202E-26a.u.
   SCALEE = 1.0000    scale energy and forces
   NPACO  =    256;   APACO  = 16.0  distance and # of slots for P.C.
   PSTRESS=    0.0 pullay stress

  Mass of Ions in am
   POMASS = 101.07
  Ionic Valenz
   ZVAL   =   8.00
  Atomic Wigner-Seitz radii
   RWIGS  =  -1.00
  virtual crystal weights 
   VCA    =   1.00
   NELECT =     384.0000    total number of electrons
   NUPDOWN=      -1.0000    fix difference up-down

 DOS related values:
   EMIN   =  10.00;   EMAX   =-10.00  energy-range for DOS
   EFERMI =   0.00
   ISMEAR =     0;   SIGMA  =   0.03  broadening in eV -4-tet -1-fermi 0-gaus

 Electronic relaxation 2 (details)
   IALGO  =     68    algorithm
   LDIAG  =      T    sub-space diagonalisation (order eigenvalues)
   LSUBROT=      T    optimize rotation matrix (better conditioning)
   TURBO    =      0    0=normal 1=particle mesh
   IRESTART =      0    0=no restart 2=restart with 2 vectors
   NREBOOT  =      0    no. of reboots
   NMIN     =      0    reboot dimension
   EREF     =   0.00    reference energy to select bands
   IMIX   =      4    mixing-type and parameters
     AMIX     =   0.40;   BMIX     =  1.00
     AMIX_MAG =   1.60;   BMIX_MAG =  1.00
     AMIN     =   0.10
     WC   =   100.;   INIMIX=   1;  MIXPRE=   1;  MAXMIX= -45

 Intra band minimization:
   WEIMIN = 0.0010     energy-eigenvalue tresh-hold
   EBREAK =  0.98E-09  absolut break condition
   DEPER  =   0.30     relativ break condition  

   TIME   =   0.40     timestep for ELM

  volume/ion in A,a.u.               =      31.85       214.94
  Fermi-wavevector in a.u.,A,eV,Ry     =   1.032923  1.951941 14.516463  1.066930
  Thomas-Fermi vector in A             =   2.167144
 
 Write flags
   LWAVE  =      F    write WAVECAR
   LCHARG =      F    write CHGCAR
   LVTOT  =      F    write LOCPOT, total local potential
   LVHAR  =      F    write LOCPOT, Hartree potential only
   LELF   =      F    write electronic localiz. function (ELF)
   LORBIT =      0    0 simple, 1 ext, 2 COOP (PROOUT)


 Dipole corrections
   LMONO  =      F    monopole corrections only (constant potential shift)
   LDIPOL =      T    correct potential (dipole corrections)
   IDIPOL =      3    1-x, 2-y, 3-z, 4-all directions 
   EPSILON=  1.0000000 bulk dielectric constant

 Exchange correlation treatment:
   GGA     =    PE    GGA type
   LEXCH   =     8    internal setting for exchange type
   VOSKOWN=      0    Vosko Wilk Nusair interpolation
   LHFCALC =     F    Hartree Fock is set to
   LHFONE  =     F    Hartree Fock one center treatment
   AEXX    =    0.0000 exact exchange contribution

 Linear response parameters
   LEPSILON=     F    determine dielectric tensor
   LRPA    =     F    only Hartree local field effects (RPA)
   LNABLA  =     F    use nabla operator in PAW spheres
   LVEL    =     F    velocity operator in full k-point grid
   LINTERFAST=   F  fast interpolation
   KINTER  =     0    interpolate to denser k-point grid
   CSHIFT  =0.1000    complex shift for real part using Kramers Kronig
   OMEGAMAX=  -1.0    maximum frequency
   DEG_THRESHOLD= 0.2000000E-02 threshold for treating states as degnerate
   RTIME   =    0.100 relaxation time in fs

 Orbital magnetization related:
   ORBITALMAG=     F  switch on orbital magnetization
   LCHIMAG   =     F  perturbation theory with respect to B field
   DQ        =  0.001000  dq finite difference perturbation B field



--------------------------------------------------------------------------------------------------------


 quasi-Newton-method for relaxation of ions
   using selective dynamics as specified on POSCAR
 charge density and potential will be updated during run
 non-spin polarized calculation
 RMM-DIIS sequential band-by-band and
  variant of blocked Davidson during initial phase
 perform sub-space diagonalisation
    before iterative eigenvector-optimisation
 modified Broyden-mixing scheme, WC =      100.0
 initial mixing is a Kerker type mixing with AMIX =  0.4000 and BMIX =      1.0000
 Hartree-type preconditioning will be used
 using additional bands           64
 real space projection scheme for non local part
 use partial core corrections
 calculate Harris-corrections to forces 
   (improved forces if not selfconsistent)
 use gradient corrections 
 use of overlap-Matrix (Vanderbilt PP)
 Gauss-broadening in eV      SIGMA  =   0.03


--------------------------------------------------------------------------------------------------------


  energy-cutoff  :      450.00
  volume of cell :     1528.80
      direct lattice vectors                 reciprocal lattice vectors
     9.394975031  0.000000000  0.000000000     0.106439878 -0.061453092  0.000000000
     4.697487515  8.136287044  0.000000000     0.000000000  0.122906185  0.000000000
     0.000000000  0.000000000 20.000000000     0.000000000  0.000000000  0.050000000

  length of vectors
     9.394975031  9.394975031 20.000000000     0.122906185  0.122906185  0.050000000


 
 k-points in units of 2pi/SCALE and weight: K-POINTS                                
   0.00000000  0.00000000  0.00000000       0.111
   0.03547996 -0.02048436  0.00000000       0.667
  -0.03547996  0.06145309  0.00000000       0.222
 
 k-points in reciprocal lattice and weights: K-POINTS                                
   0.00000000  0.00000000  0.00000000       0.111
   0.33333333  0.00000000  0.00000000       0.667
  -0.33333333  0.33333333  0.00000000       0.222
 
 position of ions in fractional coordinates (direct lattice) 
   0.00000000  0.16666667  0.00000000
   0.33333333  0.00000000  0.00000000
   0.16666667  0.33333333  0.00000000
   0.50000000  0.16666667  0.00000000
   0.83333333  0.00000000  0.00000000
   0.66666667  0.33333333  0.00000000
   0.00000000  0.66666667  0.00000000
   0.33333333  0.50000000  0.00000000
   0.16666667  0.83333333  0.00000000
   0.50000000  0.66666667  0.00000000
   0.83333333  0.50000000  0.00000000
   0.66666667  0.83333333  0.00000000
   0.00000000  0.00000000  0.10719781
   0.16666667  0.16666667  0.10719781
   0.33333333  0.33333333  0.10719781
   0.50000000  0.00000000  0.10719781
   0.66666667  0.16666667  0.10719781
   0.83333333  0.33333333  0.10719781
   0.00000000  0.50000000  0.10719781
   0.16666667  0.66666667  0.10719781
   0.33333333  0.83333333  0.10719781
   0.50000000  0.50000000  0.10719781
   0.66666667  0.66666667  0.10719781
   0.83333333  0.83333333  0.10719781
   0.00000000  0.16666667  0.21723169
   0.33333333  0.00000000  0.21723169
   0.16666667  0.33333333  0.21723169
   0.50000000  0.16666667  0.21723169
   0.83333333  0.00000000  0.21723169
   0.66666667  0.33333333  0.21723169
   0.00000000  0.66666667  0.21723169
   0.33333333  0.50000000  0.21723169
   0.16666667  0.83333333  0.21723169
   0.50000000  0.66666667  0.21723169
   0.83333333  0.50000000  0.21723169
   0.66666667  0.83333333  0.21723169
   0.00000000  0.00000000  0.32224886
   0.16666667  0.16666667  0.32224886
   0.33333333  0.33333333  0.32224886
   0.50000000  0.00000000  0.32224886
   0.66666667  0.16666667  0.32224886
   0.83333333  0.33333333  0.32224886
   0.00000000  0.50000000  0.32224886
   0.16666667  0.66666667  0.32224886
   0.33333333  0.83333333  0.32224886
   0.50000000  0.50000000  0.32224886
   0.66666667  0.66666667  0.32224886
   0.83333333  0.83333333  0.32224886
 
 position of ions in cartesian coordinates  (Angst):
   0.78291459  1.35604784  0.00000000
   3.13165834  0.00000000  0.00000000
   3.13165834  2.71209568  0.00000000
   5.48040210  1.35604784  0.00000000
   7.82914586  0.00000000  0.00000000
   7.82914586  2.71209568  0.00000000
   3.13165834  5.42419136  0.00000000
   5.48040210  4.06814352  0.00000000
   5.48040210  6.78023920  0.00000000
   7.82914586  5.42419136  0.00000000
  10.17788962  4.06814352  0.00000000
  10.17788962  6.78023920  0.00000000
   0.00000000  0.00000000  2.14395612
   2.34874376  1.35604784  2.14395612
   4.69748752  2.71209568  2.14395612
   4.69748752  0.00000000  2.14395612
   7.04623127  1.35604784  2.14395612
   9.39497503  2.71209568  2.14395612
   2.34874376  4.06814352  2.14395612
   4.69748752  5.42419136  2.14395612
   7.04623127  6.78023920  2.14395612
   7.04623127  4.06814352  2.14395612
   9.39497503  5.42419136  2.14395612
  11.74371879  6.78023920  2.14395612
   0.78291459  1.35604784  4.34463379
   3.13165834  0.00000000  4.34463379
   3.13165834  2.71209568  4.34463379
   5.48040210  1.35604784  4.34463379
   7.82914586  0.00000000  4.34463379
   7.82914586  2.71209568  4.34463379
   3.13165834  5.42419136  4.34463379
   5.48040210  4.06814352  4.34463379
   5.48040210  6.78023920  4.34463379
   7.82914586  5.42419136  4.34463379
  10.17788962  4.06814352  4.34463379
  10.17788962  6.78023920  4.34463379
   0.00000000  0.00000000  6.44497716
   2.34874376  1.35604784  6.44497716
   4.69748752  2.71209568  6.44497716
   4.69748752  0.00000000  6.44497716
   7.04623127  1.35604784  6.44497716
   9.39497503  2.71209568  6.44497716
   2.34874376  4.06814352  6.44497716
   4.69748752  5.42419136  6.44497716
   7.04623127  6.78023920  6.44497716
   7.04623127  4.06814352  6.44497716
   9.39497503  5.42419136  6.44497716
  11.74371879  6.78023920  6.44497716
 


--------------------------------------------------------------------------------------------------------


 k-point  1 :   0.0000 0.0000 0.0000  plane waves:   33141
 k-point  2 :   0.3333 0.0000 0.0000  plane waves:   33148
 k-point  3 :  -0.3333 0.3333 0.0000  plane waves:   33174

 maximum and minimum number of plane-waves per node :     33174    33141

 maximum number of plane-waves:     33174
 maximum index in each direction: 
   IXMAX=   16   IYMAX=   16   IZMAX=   34
   IXMIN=  -16   IYMIN=  -16   IZMIN=  -34

 WARNING: aliasing errors must be expected set NGX to  66 to avoid them
 WARNING: aliasing errors must be expected set NGY to  66 to avoid them
 WARNING: aliasing errors must be expected set NGZ to 138 to avoid them
 aliasing errors are usually negligible using standard VASP settings
 and one can safely disregard these warnings

 serial   3D FFT for wavefunctions
 parallel 3D FFT for charge:
    minimum data exchange during FFTs selected (reduces bandwidth)


 total amount of memory used by VASP on root node   212508. kBytes
========================================================================

   base      :      30000. kBytes
   nonlr-proj:      20874. kBytes
   fftplans  :      19398. kBytes
   grid      :      36920. kBytes
   one-center:        746. kBytes
   wavefun   :     104570. kBytes
 
 Broyden mixing: mesh for mixing (old mesh)
   NGX = 33   NGY = 33   NGZ = 69
  (NGX  =100   NGY  =100   NGZ  =216)
  gives a total of  75141 points

 initial charge density was supplied:
 charge density of overlapping atoms calculated
 number of electron     384.0000000 magnetization 
 keeping initial charge density in first step


--------------------------------------------------------------------------------------------------------


 Maximum index for non-local projection operator         2480
 Maximum index for augmentation-charges         2936 (set IRDMAX)


--------------------------------------------------------------------------------------------------------


 First call to EWALD:  gamma=   0.154
 Maximum number of real-space cells 4x 4x 2
 Maximum number of reciprocal cells 2x 2x 4

 FEWALD executed in parallel
    FEWALD:  cpu time    0.00: real time    0.00


----------------------------------------- Iteration    1(   1)  ---------------------------------------


    POTLOK:  cpu time    0.51: real time    0.51
    SETDIJ:  cpu time    0.04: real time    0.04
     EDDAV:  cpu time   28.70: real time   28.77
       DOS:  cpu time    0.00: real time    0.00
    --------------------------------------------
      LOOP:  cpu time   29.25: real time   29.32

 eigenvalue-minimisations  :  1536
 total energy-change (2. order) : 0.2217356E+04  (-0.1550442E+05)
 number of electron     384.0000000 magnetization 
 augmentation part      384.0000000 magnetization 

 DIPCOR: dipole corrections for dipol
 direction  3 min pos   144,
 dipolmoment           0.000000      0.000000      0.000015 electrons x Angstroem
 Tr[quadrupol]     -5880.409884

 energy correction for charged system         0.000000 eV
 dipol+quadrupol energy correction            0.000000 eV
 added-field ion interaction          0.000005 eV  (added to PSCEN)


 Free energy of the ion-electron system (eV)
  ---------------------------------------------------
  alpha Z        PSCENC =       691.46717408
  Ewald energy   TEWEN  =     72088.03676119
  -1/2 Hartree   DENC   =    -95564.10799374
  -exchange  EXHF       =         0.00000000
  -V(xc)+E(xc)   XCENC  =     -1548.66102421
  PAW double counting   =     22207.87638422   -19868.51967359
  entropy T*S    EENTRO =        -0.01893703
  eigenvalues    EBANDS =      2377.00085960
  atomic energy  EATOM  =     21834.28239775
  ---------------------------------------------------
  free energy    TOTEN  =      2217.35594827 eV

  energy without entropy =     2217.37488530  energy(sigma->0) =     2217.36541678


--------------------------------------------------------------------------------------------------------




----------------------------------------- Iteration    1(   2)  ---------------------------------------


     EDDAV:  cpu time   30.38: real time   30.46
       DOS:  cpu time    0.00: real time    0.00
    --------------------------------------------
      LOOP:  cpu time   30.38: real time   30.46

 eigenvalue-minimisations  :  1632
 total energy-change (2. order) :-0.2499462E+04  (-0.2306048E+04)
 number of electron     384.0000000 magnetization 
 augmentation part      384.0000000 magnetization 

 DIPCOR: dipole corrections for dipol
 direction  3 min pos   144,
 dipolmoment           0.000000      0.000000      0.000015 electrons x Angstroem
 Tr[quadrupol]     -5880.409884

 energy correction for charged system         0.000000 eV
 dipol+quadrupol energy correction            0.000000 eV
 added-field ion interaction          0.000005 eV  (added to PSCEN)


 Free energy of the ion-electron system (eV)
  ---------------------------------------------------
  alpha Z        PSCENC =       691.46717408
  Ewald energy   TEWEN  =     72088.03676119
  -1/2 Hartree   DENC   =    -95564.10799374
  -exchange  EXHF       =         0.00000000
  -V(xc)+E(xc)   XCENC  =     -1548.66102421
  PAW double counting   =     22207.87638422   -19868.51967359
  entropy T*S    EENTRO =        -0.02200997
  eigenvalues    EBANDS =      -122.45772743
  atomic energy  EATOM  =     21834.28239775
  ---------------------------------------------------
  free energy    TOTEN  =      -282.10571170 eV

  energy without entropy =     -282.08370173  energy(sigma->0) =     -282.09470672


--------------------------------------------------------------------------------------------------------




----------------------------------------- Iteration    1(   3)  ---------------------------------------


     EDDAV:  cpu time   38.37: real time   38.45
       DOS:  cpu time    0.00: real time    0.00
    --------------------------------------------
      LOOP:  cpu time   38.37: real time   38.62

 eigenvalue-minimisations  :  2224
 total energy-change (2. order) :-0.1601673E+03  (-0.1476345E+03)
 number of electron     384.0000000 magnetization 
 augmentation part      384.0000000 magnetization 

 DIPCOR: dipole corrections for dipol
 direction  3 min pos   144,
 dipolmoment           0.000000      0.000000      0.000015 electrons x Angstroem
 Tr[quadrupol]     -5880.409884

 energy correction for charged system         0.000000 eV
 dipol+quadrupol energy correction            0.000000 eV
 added-field ion interaction          0.000005 eV  (added to PSCEN)


 Free energy of the ion-electron system (eV)
  ---------------------------------------------------
  alpha Z        PSCENC =       691.46717408
  Ewald energy   TEWEN  =     72088.03676119
  -1/2 Hartree   DENC   =    -95564.10799374
  -exchange  EXHF       =         0.00000000
  -V(xc)+E(xc)   XCENC  =     -1548.66102421
  PAW double counting   =     22207.87638422   -19868.51967359
  entropy T*S    EENTRO =        -0.03081741
  eigenvalues    EBANDS =      -282.61622339
  atomic energy  EATOM  =     21834.28239775
  ---------------------------------------------------
  free energy    TOTEN  =      -442.27301510 eV

  energy without entropy =     -442.24219769  energy(sigma->0) =     -442.25760639


--------------------------------------------------------------------------------------------------------




----------------------------------------- Iteration    1(   4)  ---------------------------------------


     EDDAV:  cpu time   35.42: real time   35.51
       DOS:  cpu time    0.00: real time    0.00
    --------------------------------------------
      LOOP:  cpu time   35.42: real time   35.51

 eigenvalue-minimisations  :  2000
 total energy-change (2. order) :-0.8487304E+01  (-0.8198370E+01)
 number of electron     384.0000000 magnetization 
 augmentation part      384.0000000 magnetization 

 DIPCOR: dipole corrections for dipol
 direction  3 min pos   144,
 dipolmoment           0.000000      0.000000      0.000015 electrons x Angstroem
 Tr[quadrupol]     -5880.409884

 energy correction for charged system         0.000000 eV
 dipol+quadrupol energy correction            0.000000 eV
 added-field ion interaction          0.000005 eV  (added to PSCEN)


 Free energy of the ion-electron system (eV)
  ---------------------------------------------------
  alpha Z        PSCENC =       691.46717408
  Ewald energy   TEWEN  =     72088.03676119
  -1/2 Hartree   DENC   =    -95564.10799374
  -exchange  EXHF       =         0.00000000
  -V(xc)+E(xc)   XCENC  =     -1548.66102421
  PAW double counting   =     22207.87638422   -19868.51967359
  entropy T*S    EENTRO =        -0.02833557
  eigenvalues    EBANDS =      -291.10600888
  atomic energy  EATOM  =     21834.28239775
  ---------------------------------------------------
  free energy    TOTEN  =      -450.76031874 eV

  energy without entropy =     -450.73198318  energy(sigma->0) =     -450.74615096


--------------------------------------------------------------------------------------------------------




----------------------------------------- Iteration    1(   5)  ---------------------------------------


     EDDAV:  cpu time   40.99: real time   41.07
       DOS:  cpu time    0.00: real time    0.00
    --------------------------------------------
      LOOP:  cpu time   40.99: real time   41.08

 eigenvalue-minimisations  :  2368
 total energy-change (2. order) :-0.3488709E+00  (-0.3443571E+00)
 number of electron     384.0000000 magnetization 
 augmentation part      384.0000000 magnetization 

 DIPCOR: dipole corrections for dipol
 direction  3 min pos   144,
 dipolmoment           0.000000      0.000000      0.000015 electrons x Angstroem
 Tr[quadrupol]     -5880.409884

 energy correction for charged system         0.000000 eV
 dipol+quadrupol energy correction            0.000000 eV
 added-field ion interaction          0.000005 eV  (added to PSCEN)


 Free energy of the ion-electron system (eV)
  ---------------------------------------------------
  alpha Z        PSCENC =       691.46717408
  Ewald energy   TEWEN  =     72088.03676119
  -1/2 Hartree   DENC   =    -95564.10799374
  -exchange  EXHF       =         0.00000000
  -V(xc)+E(xc)   XCENC  =     -1548.66102421
  PAW double counting   =     22207.87638422   -19868.51967359
  entropy T*S    EENTRO =        -0.02828508
  eigenvalues    EBANDS =      -291.45493026
  atomic energy  EATOM  =     21834.28239775
  ---------------------------------------------------
  free energy    TOTEN  =      -451.10918964 eV

  energy without entropy =     -451.08090456  energy(sigma->0) =     -451.09504710


--------------------------------------------------------------------------------------------------------




----------------------------------------- Iteration    1(   6)  ---------------------------------------


     EDDAV:  cpu time   36.72: real time   36.82
       DOS:  cpu time    0.00: real time    0.00
    --------------------------------------------
      LOOP:  cpu time   36.72: real time   36.82

 eigenvalue-minimisations  :  2112
 total energy-change (2. order) :-0.9429911E-02  (-0.9397110E-02)
 number of electron     384.0000000 magnetization 
 augmentation part      384.0000000 magnetization 

 DIPCOR: dipole corrections for dipol
 direction  3 min pos   144,
 dipolmoment           0.000000      0.000000      0.000015 electrons x Angstroem
 Tr[quadrupol]     -5880.409884

 energy correction for charged system         0.000000 eV
 dipol+quadrupol energy correction            0.000000 eV
 added-field ion interaction          0.000005 eV  (added to PSCEN)


 Free energy of the ion-electron system (eV)
  ---------------------------------------------------
  alpha Z        PSCENC =       691.46717408
  Ewald energy   TEWEN  =     72088.03676119
  -1/2 Hartree   DENC   =    -95564.10799374
  -exchange  EXHF       =         0.00000000
  -V(xc)+E(xc)   XCENC  =     -1548.66102421
  PAW double counting   =     22207.87638422   -19868.51967359
  entropy T*S    EENTRO =        -0.02831294
  eigenvalues    EBANDS =      -291.46433231
  atomic energy  EATOM  =     21834.28239775
  ---------------------------------------------------
  free energy    TOTEN  =      -451.11861956 eV

  energy without entropy =     -451.09030661  energy(sigma->0) =     -451.10446308


--------------------------------------------------------------------------------------------------------




----------------------------------------- Iteration    1(   7)  ---------------------------------------


     EDDAV:  cpu time   41.79: real time   41.88
       DOS:  cpu time    0.00: real time    0.00
    CHARGE:  cpu time    1.90: real time    1.91
    MIXING:  cpu time    0.01: real time    0.01
    --------------------------------------------
      LOOP:  cpu time   43.70: real time   43.80

 eigenvalue-minimisations  :  2448
 total energy-change (2. order) :-0.4248006E-03  (-0.4241201E-03)
 number of electron     384.0000011 magnetization 
 augmentation part      120.9432777 magnetization 

 DIPCOR: dipole corrections for dipol
 direction  3 min pos   144,
 dipolmoment           0.000000      0.000000      0.000015 electrons x Angstroem
 Tr[quadrupol]     -5880.409884

 energy correction for charged system         0.000000 eV
 dipol+quadrupol energy correction            0.000000 eV
 added-field ion interaction          0.000005 eV  (added to PSCEN)


 Broyden mixing:
  rms(total) = 0.73701E+01    rms(broyden)= 0.73701E+01
  rms(prec ) = 0.75550E+01
  weight for this iteration     100.00

 Free energy of the ion-electron system (eV)
  ---------------------------------------------------
  alpha Z        PSCENC =       691.46717408
  Ewald energy   TEWEN  =     72088.03676119
  -1/2 Hartree   DENC   =    -95564.10799374
  -exchange  EXHF       =         0.00000000
  -V(xc)+E(xc)   XCENC  =     -1548.66102421
  PAW double counting   =     22207.87638422   -19868.51967359
  entropy T*S    EENTRO =        -0.02831834
  eigenvalues    EBANDS =      -291.46475172
  atomic energy  EATOM  =     21834.28239775
  ---------------------------------------------------
  free energy    TOTEN  =      -451.11904436 eV

  energy without entropy =     -451.09072602  energy(sigma->0) =     -451.10488519


--------------------------------------------------------------------------------------------------------




----------------------------------------- Iteration    1(   8)  ---------------------------------------


    POTLOK:  cpu time    0.46: real time    0.45
    SETDIJ:  cpu time    0.04: real time    0.04
    EDDIAG:  cpu time    5.92: real time    5.93
  RMM-DIIS:  cpu time   15.25: real time   15.28
    ORTHCH:  cpu time    0.77: real time    0.77
       DOS:  cpu time    0.00: real time    0.00
    CHARGE:  cpu time    1.94: real time    1.95
    MIXING:  cpu time    0.01: real time    0.01
    --------------------------------------------
      LOOP:  cpu time   24.38: real time   24.44

 eigenvalue-minimisations  :  1546
 total energy-change (2. order) : 0.1991039E+02  (-0.8760954E+01)
 number of electron     384.0000015 magnetization 
 augmentation part      128.5197027 magnetization 

 DIPCOR: dipole corrections for dipol
 direction  3 min pos   150,
 dipolmoment           0.000000      0.000000     -0.080703 electrons x Angstroem
 Tr[quadrupol]     -5888.655959

 energy correction for charged system         0.000000 eV
 dipol+quadrupol energy correction           -0.000385 eV
 added-field ion interaction         -2.064845 eV  (added to PSCEN)


 Broyden mixing:
  rms(total) = 0.33032E+01    rms(broyden)= 0.33032E+01
  rms(prec ) = 0.40245E+01
  weight for this iteration     100.00

 eigenvalues of (default mixing * dielectric matrix)
  average eigenvalue GAMMA=   1.2556
  1.2556

 Free energy of the ion-electron system (eV)
  ---------------------------------------------------
  alpha Z        PSCENC =       689.40193885
  Ewald energy   TEWEN  =     72088.03676119
  -1/2 Hartree   DENC   =    -95507.58706495
  -exchange  EXHF       =         0.00000000
  -V(xc)+E(xc)   XCENC  =     -1551.24095618
  PAW double counting   =     25542.24764337   -23259.54139318
  entropy T*S    EENTRO =        -0.03532385
  eigenvalues    EBANDS =      -266.77266121
  atomic energy  EATOM  =     21834.28239775
  ---------------------------------------------------
  free energy    TOTEN  =      -431.20865821 eV

  energy without entropy =     -431.17333436  energy(sigma->0) =     -431.19099628


--------------------------------------------------------------------------------------------------------




----------------------------------------- Iteration    1(   9)  ---------------------------------------


    POTLOK:  cpu time    0.51: real time    0.51
    SETDIJ:  cpu time    0.04: real time    0.04
    EDDIAG:  cpu time    5.93: real time    5.95
  RMM-DIIS:  cpu time   15.74: real time   15.77
    ORTHCH:  cpu time    0.77: real time    0.77
       DOS:  cpu time    0.00: real time    0.00
    CHARGE:  cpu time    2.00: real time    2.01
    MIXING:  cpu time    0.01: real time    0.01
    --------------------------------------------
      LOOP:  cpu time   25.00: real time   25.09

 eigenvalue-minimisations  :  1585
 total energy-change (2. order) :-0.1447095E+03  (-0.2821770E+02)
 number of electron     384.0000004 magnetization 
 augmentation part      137.9237069 magnetization 

 DIPCOR: dipole corrections for dipol
 direction  3 min pos   144,
 dipolmoment           0.000000      0.000000     -0.712273 electrons x Angstroem
 Tr[quadrupol]     -5875.898634

 energy correction for charged system         0.000000 eV
 dipol+quadrupol energy correction           -0.030026 eV
 added-field ion interaction         -0.237921 eV  (added to PSCEN)


 Broyden mixing:
  rms(total) = 0.98671E+01    rms(broyden)= 0.98671E+01
  rms(prec ) = 0.14558E+02
  weight for this iteration     100.00

 eigenvalues of (default mixing * dielectric matrix)
  average eigenvalue GAMMA=   0.9013
  1.6278  0.1747

 Free energy of the ion-electron system (eV)
  ---------------------------------------------------
  alpha Z        PSCENC =       691.19922203
  Ewald energy   TEWEN  =     72088.03676119
  -1/2 Hartree   DENC   =    -95134.03360206
  -exchange  EXHF       =         0.00000000
  -V(xc)+E(xc)   XCENC  =     -1549.65117512
  PAW double counting   =     27439.53092050   -25185.92690204
  entropy T*S    EENTRO =        -0.02591807
  eigenvalues    EBANDS =      -759.32983917
  atomic energy  EATOM  =     21834.28239775
  ---------------------------------------------------
  free energy    TOTEN  =      -575.91813499 eV

  energy without entropy =     -575.89221692  energy(sigma->0) =     -575.90517595


--------------------------------------------------------------------------------------------------------




----------------------------------------- Iteration    1(  10)  ---------------------------------------


    POTLOK:  cpu time    0.48: real time    0.48
    SETDIJ:  cpu time    0.05: real time    0.05
    EDDIAG:  cpu time    6.08: real time    6.10
  RMM-DIIS:  cpu time   16.09: real time   16.13
    ORTHCH:  cpu time    0.77: real time    0.77
       DOS:  cpu time    0.00: real time    0.00
    CHARGE:  cpu time    1.88: real time    1.89
    MIXING:  cpu time    0.01: real time    0.01
    --------------------------------------------
      LOOP:  cpu time   25.37: real time   25.44

 eigenvalue-minimisations  :  1632
 total energy-change (2. order) :-0.5751159E+02  (-0.2153149E+02)
 number of electron     384.0000004 magnetization 
 augmentation part      140.6777701 magnetization 

 DIPCOR: dipole corrections for dipol
 direction  3 min pos   143,
 dipolmoment           0.000000      0.000000      2.809672 electrons x Angstroem
 Tr[quadrupol]     -5885.861254

 energy correction for charged system         0.000000 eV
 dipol+quadrupol energy correction           -0.467207 eV
 added-field ion interaction        -10.886239 eV  (added to PSCEN)


 Broyden mixing:
  rms(total) = 0.10504E+02    rms(broyden)= 0.10504E+02
  rms(prec ) = 0.20135E+02
  weight for this iteration     100.00

 eigenvalues of (default mixing * dielectric matrix)
  average eigenvalue GAMMA=   0.6280
  1.6598  0.1628  0.0615

 Free energy of the ion-electron system (eV)
  ---------------------------------------------------
  alpha Z        PSCENC =       680.11372334
  Ewald energy   TEWEN  =     72088.03676119
  -1/2 Hartree   DENC   =    -95375.68451840
  -exchange  EXHF       =         0.00000000
  -V(xc)+E(xc)   XCENC  =     -1550.17929331
  PAW double counting   =     28836.79129422   -26601.07585092
  entropy T*S    EENTRO =        -0.00707360
  eigenvalues    EBANDS =      -545.70716037
  atomic energy  EATOM  =     21834.28239775
  ---------------------------------------------------
  free energy    TOTEN  =      -633.42972010 eV

  energy without entropy =     -633.42264650  energy(sigma->0) =     -633.42618330


--------------------------------------------------------------------------------------------------------




----------------------------------------- Iteration    1(  11)  ---------------------------------------


    POTLOK:  cpu time    0.50: real time    0.51
    SETDIJ:  cpu time    0.04: real time    0.04
    EDDIAG:  cpu time    5.89: real time    5.90
  RMM-DIIS:  cpu time   15.22: real time   15.26
    ORTHCH:  cpu time    0.77: real time    0.77
       DOS:  cpu time    0.00: real time    0.00
    CHARGE:  cpu time    1.92: real time    1.92
    MIXING:  cpu time    0.01: real time    0.01
    --------------------------------------------
      LOOP:  cpu time   24.36: real time   24.41

 eigenvalue-minimisations  :  1553
 total energy-change (2. order) : 0.2111100E+03  (-0.3210112E+01)
 number of electron     384.0000010 magnetization 
 augmentation part      131.2639745 magnetization 

 DIPCOR: dipole corrections for dipol
 direction  3 min pos   140,
 dipolmoment           0.000000      0.000000      0.360568 electrons x Angstroem
 Tr[quadrupol]     -5889.670081

 energy correction for charged system         0.000000 eV
 dipol+quadrupol energy correction           -0.007694 eV
 added-field ion interaction         -5.949490 eV  (added to PSCEN)


 Broyden mixing:
  rms(total) = 0.15748E+01    rms(broyden)= 0.15747E+01
  rms(prec ) = 0.26274E+01
  weight for this iteration     100.00

 eigenvalues of (default mixing * dielectric matrix)
  average eigenvalue GAMMA=   0.5849
  1.5805  0.4942  0.1899  0.0751

 Free energy of the ion-electron system (eV)
  ---------------------------------------------------
  alpha Z        PSCENC =       685.50998455
  Ewald energy   TEWEN  =     72088.03676119
  -1/2 Hartree   DENC   =    -95462.50837305
  -exchange  EXHF       =         0.00000000
  -V(xc)+E(xc)   XCENC  =     -1550.36905026
  PAW double counting   =     29247.54759473   -27016.70627838
  entropy T*S    EENTRO =        -0.03697010
  eigenvalues    EBANDS =      -248.07578626
  atomic energy  EATOM  =     21834.28239775
  ---------------------------------------------------
  free energy    TOTEN  =      -422.31971983 eV

  energy without entropy =     -422.28274973  energy(sigma->0) =     -422.30123478


--------------------------------------------------------------------------------------------------------




----------------------------------------- Iteration    1(  12)  ---------------------------------------


    POTLOK:  cpu time    0.48: real time    0.48
    SETDIJ:  cpu time    0.04: real time    0.04
    EDDIAG:  cpu time    5.95: real time    5.97
  RMM-DIIS:  cpu time   16.21: real time   16.24
    ORTHCH:  cpu time    0.76: real time    0.76
       DOS:  cpu time    0.00: real time    0.00
    CHARGE:  cpu time    1.92: real time    1.92
    MIXING:  cpu time    0.01: real time    0.01
    --------------------------------------------
      LOOP:  cpu time   25.37: real time   25.44

 eigenvalue-minimisations  :  1632
 total energy-change (2. order) : 0.2941277E+01  (-0.1029546E+01)
 number of electron     384.0000010 magnetization 
 augmentation part      131.5726665 magnetization 

 DIPCOR: dipole corrections for dipol
 direction  3 min pos   138,
 dipolmoment           0.000000      0.000000      0.141331 electrons x Angstroem
 Tr[quadrupol]     -5890.590905

 energy correction for charged system         0.000000 eV
 dipol+quadrupol energy correction           -0.001182 eV
 added-field ion interaction         -3.521613 eV  (added to PSCEN)


 Broyden mixing:
  rms(total) = 0.79433E+00    rms(broyden)= 0.79431E+00
  rms(prec ) = 0.10201E+01
  weight for this iteration     100.00

 eigenvalues of (default mixing * dielectric matrix)
  average eigenvalue GAMMA=   0.5185
  1.5638  0.3841  0.3841  0.1849  0.0754

 Free energy of the ion-electron system (eV)
  ---------------------------------------------------
  alpha Z        PSCENC =       687.94437411
  Ewald energy   TEWEN  =     72088.03676119
  -1/2 Hartree   DENC   =    -95465.17211138
  -exchange  EXHF       =         0.00000000
  -V(xc)+E(xc)   XCENC  =     -1550.46637348
  PAW double counting   =     29230.62444282   -27001.82970420
  entropy T*S    EENTRO =        -0.02669214
  eigenvalues    EBANDS =      -242.77153788
  atomic energy  EATOM  =     21834.28239775
  ---------------------------------------------------
  free energy    TOTEN  =      -419.37844321 eV

  energy without entropy =     -419.35175107  energy(sigma->0) =     -419.36509714


--------------------------------------------------------------------------------------------------------




----------------------------------------- Iteration    1(  13)  ---------------------------------------


    POTLOK:  cpu time    0.50: real time    0.49
    SETDIJ:  cpu time    0.04: real time    0.04
    EDDIAG:  cpu time    5.89: real time    5.90
  RMM-DIIS:  cpu time   16.00: real time   16.03
    ORTHCH:  cpu time    0.77: real time    0.77
       DOS:  cpu time    0.00: real time    0.00
    CHARGE:  cpu time    1.94: real time    1.94
    MIXING:  cpu time    0.01: real time    0.01
    --------------------------------------------
      LOOP:  cpu time   25.14: real time   25.20

 eigenvalue-minimisations  :  1618
 total energy-change (2. order) : 0.5133783E+00  (-0.1862892E+00)
 number of electron     384.0000011 magnetization 
 augmentation part      131.6408282 magnetization 

 DIPCOR: dipole corrections for dipol
 direction  3 min pos   137,
 dipolmoment           0.000000      0.000000      0.118313 electrons x Angstroem
 Tr[quadrupol]     -5890.801260

 energy correction for charged system         0.000000 eV
 dipol+quadrupol energy correction           -0.000828 eV
 added-field ion interaction         -3.445999 eV  (added to PSCEN)


 Broyden mixing:
  rms(total) = 0.46021E+00    rms(broyden)= 0.46020E+00
  rms(prec ) = 0.50571E+00
  weight for this iteration     100.00

 eigenvalues of (default mixing * dielectric matrix)
  average eigenvalue GAMMA=   0.5482
  1.5449  0.6238  0.6238  0.0752  0.1856  0.2358

 Free energy of the ion-electron system (eV)
  ---------------------------------------------------
  alpha Z        PSCENC =       688.02034124
  Ewald energy   TEWEN  =     72088.03676119
  -1/2 Hartree   DENC   =    -95467.06188679
  -exchange  EXHF       =         0.00000000
  -V(xc)+E(xc)   XCENC  =     -1550.44635869
  PAW double counting   =     29271.60810746   -27043.94698287
  entropy T*S    EENTRO =        -0.02532333
  eigenvalues    EBANDS =      -239.33212085
  atomic energy  EATOM  =     21834.28239775
  ---------------------------------------------------
  free energy    TOTEN  =      -418.86506489 eV

  energy without entropy =     -418.83974156  energy(sigma->0) =     -418.85240322


--------------------------------------------------------------------------------------------------------




----------------------------------------- Iteration    1(  14)  ---------------------------------------


    POTLOK:  cpu time    0.51: real time    0.51
    SETDIJ:  cpu time    0.04: real time    0.04
    EDDIAG:  cpu time    5.92: real time    5.93
  RMM-DIIS:  cpu time   16.65: real time   16.68
    ORTHCH:  cpu time    0.76: real time    0.76
       DOS:  cpu time    0.00: real time    0.00
    CHARGE:  cpu time    1.93: real time    1.93
    MIXING:  cpu time    0.01: real time    0.01
    --------------------------------------------
      LOOP:  cpu time   25.82: real time   25.87

 eigenvalue-minimisations  :  1687
 total energy-change (2. order) : 0.7051982E-01  (-0.2617994E-01)
 number of electron     384.0000011 magnetization 
 augmentation part      131.6259561 magnetization 

 DIPCOR: dipole corrections for dipol
 direction  3 min pos   137,
 dipolmoment           0.000000      0.000000      0.112549 electrons x Angstroem
 Tr[quadrupol]     -5891.180165

 energy correction for charged system         0.000000 eV
 dipol+quadrupol energy correction           -0.000750 eV
 added-field ion interaction         -3.278099 eV  (added to PSCEN)


 Broyden mixing:
  rms(total) = 0.34999E+00    rms(broyden)= 0.34999E+00
  rms(prec ) = 0.45993E+00
  weight for this iteration     100.00

 eigenvalues of (default mixing * dielectric matrix)
  average eigenvalue GAMMA=   0.7950
  1.9610  1.5528  0.9114  0.6448  0.0752  0.1873  0.2328

 Free energy of the ion-electron system (eV)
  ---------------------------------------------------
  alpha Z        PSCENC =       688.18832062
  Ewald energy   TEWEN  =     72088.03676119
  -1/2 Hartree   DENC   =    -95475.37112295
  -exchange  EXHF       =         0.00000000
  -V(xc)+E(xc)   XCENC  =     -1550.35086807
  PAW double counting   =     29414.41761113   -27189.61447344
  entropy T*S    EENTRO =        -0.02581998
  eigenvalues    EBANDS =      -228.35735131
  atomic energy  EATOM  =     21834.28239775
  ---------------------------------------------------
  free energy    TOTEN  =      -418.79454507 eV

  energy without entropy =     -418.76872509  energy(sigma->0) =     -418.78163508


--------------------------------------------------------------------------------------------------------




----------------------------------------- Iteration    1(  15)  ---------------------------------------


    POTLOK:  cpu time    0.48: real time    0.48
    SETDIJ:  cpu time    0.04: real time    0.04
    EDDIAG:  cpu time    6.14: real time    6.16
  RMM-DIIS:  cpu time   15.46: real time   15.50
    ORTHCH:  cpu time    0.76: real time    0.76
       DOS:  cpu time    0.00: real time    0.00
    CHARGE:  cpu time    1.93: real time    1.93
    MIXING:  cpu time    0.01: real time    0.01
    --------------------------------------------
      LOOP:  cpu time   24.83: real time   24.88

 eigenvalue-minimisations  :  1562
 total energy-change (2. order) : 0.1035719E+00  (-0.1008657E-01)
 number of electron     384.0000011 magnetization 
 augmentation part      131.6605441 magnetization 

 DIPCOR: dipole corrections for dipol
 direction  3 min pos   138,
 dipolmoment           0.000000      0.000000      0.026296 electrons x Angstroem
 Tr[quadrupol]     -5892.196452

 energy correction for charged system         0.000000 eV
 dipol+quadrupol energy correction           -0.000041 eV
 added-field ion interaction         -0.655242 eV  (added to PSCEN)


 Broyden mixing:
  rms(total) = 0.13541E+00    rms(broyden)= 0.13541E+00
  rms(prec ) = 0.17275E+00
  weight for this iteration     100.00

 eigenvalues of (default mixing * dielectric matrix)
  average eigenvalue GAMMA=   0.8240
  2.0149  1.3896  1.3896  0.6516  0.6516  0.0752  0.1872  0.2326

 Free energy of the ion-electron system (eV)
  ---------------------------------------------------
  alpha Z        PSCENC =       690.81188573
  Ewald energy   TEWEN  =     72088.03676119
  -1/2 Hartree   DENC   =    -95492.76833763
  -exchange  EXHF       =         0.00000000
  -V(xc)+E(xc)   XCENC  =     -1550.02845015
  PAW double counting   =     29813.35044036   -27595.97836059
  entropy T*S    EENTRO =        -0.02484600
  eigenvalues    EBANDS =      -206.37246387
  atomic energy  EATOM  =     21834.28239775
  ---------------------------------------------------
  free energy    TOTEN  =      -418.69097321 eV

  energy without entropy =     -418.66612721  energy(sigma->0) =     -418.67855021


--------------------------------------------------------------------------------------------------------




----------------------------------------- Iteration    1(  16)  ---------------------------------------


    POTLOK:  cpu time    0.47: real time    0.47
    SETDIJ:  cpu time    0.04: real time    0.04
    EDDIAG:  cpu time    5.89: real time    5.90
  RMM-DIIS:  cpu time   16.05: real time   16.08
    ORTHCH:  cpu time    0.77: real time    0.77
       DOS:  cpu time    0.00: real time    0.00
    CHARGE:  cpu time    1.93: real time    1.94
    MIXING:  cpu time    0.02: real time    0.02
    --------------------------------------------
      LOOP:  cpu time   25.17: real time   25.23

 eigenvalue-minimisations  :  1632
 total energy-change (2. order) : 0.1702034E-01  (-0.3172043E-02)
 number of electron     384.0000011 magnetization 
 augmentation part      131.7316547 magnetization 

 DIPCOR: dipole corrections for dipol
 direction  3 min pos   139,
 dipolmoment           0.000000      0.000000      0.004172 electrons x Angstroem
 Tr[quadrupol]     -5892.893226

 energy correction for charged system         0.000000 eV
 dipol+quadrupol energy correction           -0.000001 eV
 added-field ion interaction         -0.086400 eV  (added to PSCEN)


 Broyden mixing:
  rms(total) = 0.73130E-01    rms(broyden)= 0.73130E-01
  rms(prec ) = 0.91930E-01
  weight for this iteration     100.00

 eigenvalues of (default mixing * dielectric matrix)
  average eigenvalue GAMMA=   0.9906
  2.2601  2.2601  1.2509  1.2509  0.6994  0.6994  0.0752  0.1872  0.2326

 Free energy of the ion-electron system (eV)
  ---------------------------------------------------
  alpha Z        PSCENC =       691.38076813
  Ewald energy   TEWEN  =     72088.03676119
  -1/2 Hartree   DENC   =    -95505.51137952
  -exchange  EXHF       =         0.00000000
  -V(xc)+E(xc)   XCENC  =     -1549.93614248
  PAW double counting   =     29888.09265573   -27672.21113327
  entropy T*S    EENTRO =        -0.02523588
  eigenvalues    EBANDS =      -192.78264453
  atomic energy  EATOM  =     21834.28239775
  ---------------------------------------------------
  free energy    TOTEN  =      -418.67395287 eV

  energy without entropy =     -418.64871699  energy(sigma->0) =     -418.66133493


--------------------------------------------------------------------------------------------------------




----------------------------------------- Iteration    1(  17)  ---------------------------------------


    POTLOK:  cpu time    0.48: real time    0.48
    SETDIJ:  cpu time    0.04: real time    0.04
    EDDIAG:  cpu time    5.90: real time    5.92
  RMM-DIIS:  cpu time   15.71: real time   15.75
    ORTHCH:  cpu time    0.77: real time    0.77
       DOS:  cpu time    0.00: real time    0.00
    CHARGE:  cpu time    1.97: real time    1.98
    MIXING:  cpu time    0.02: real time    0.02
    --------------------------------------------
      LOOP:  cpu time   24.89: real time   24.95

 eigenvalue-minimisations  :  1581
 total energy-change (2. order) : 0.6360177E-02  (-0.1466195E-02)
 number of electron     384.0000011 magnetization 
 augmentation part      131.7759593 magnetization 

 DIPCOR: dipole corrections for dipol
 direction  3 min pos   142,
 dipolmoment           0.000000      0.000000     -0.013637 electrons x Angstroem
 Tr[quadrupol]     -5893.773838

 energy correction for charged system         0.000000 eV
 dipol+quadrupol energy correction           -0.000011 eV
 added-field ion interaction          0.110228 eV  (added to PSCEN)


 Broyden mixing:
  rms(total) = 0.23389E-01    rms(broyden)= 0.23389E-01
  rms(prec ) = 0.26674E-01
  weight for this iteration     100.00

 eigenvalues of (default mixing * dielectric matrix)
  average eigenvalue GAMMA=   1.0402
  2.4427  2.4427  1.3158  1.3158  1.0231  0.6835  0.6835  0.0752  0.1872  0.2326

 Free energy of the ion-electron system (eV)
  ---------------------------------------------------
  alpha Z        PSCENC =       691.57738562
  Ewald energy   TEWEN  =     72088.03676119
  -1/2 Hartree   DENC   =    -95521.74108792
  -exchange  EXHF       =         0.00000000
  -V(xc)+E(xc)   XCENC  =     -1549.84032150
  PAW double counting   =     29887.95709452   -27672.33447618
  entropy T*S    EENTRO =        -0.02521649
  eigenvalues    EBANDS =      -176.58012969
  atomic energy  EATOM  =     21834.28239775
  ---------------------------------------------------
  free energy    TOTEN  =      -418.66759270 eV

  energy without entropy =     -418.64237620  energy(sigma->0) =     -418.65498445


--------------------------------------------------------------------------------------------------------




----------------------------------------- Iteration    1(  18)  ---------------------------------------


    POTLOK:  cpu time    0.50: real time    0.50
    SETDIJ:  cpu time    0.04: real time    0.04
    EDDIAG:  cpu time    5.94: real time    5.95
  RMM-DIIS:  cpu time   16.17: real time   16.20
    ORTHCH:  cpu time    0.77: real time    0.77
       DOS:  cpu time    0.00: real time    0.00
    CHARGE:  cpu time    1.94: real time    1.95
    MIXING:  cpu time    0.02: real time    0.02
    --------------------------------------------
      LOOP:  cpu time   25.37: real time   25.42

 eigenvalue-minimisations  :  1630
 total energy-change (2. order) : 0.1010501E-02  (-0.2231906E-03)
 number of electron     384.0000011 magnetization 
 augmentation part      131.7887450 magnetization 

 DIPCOR: dipole corrections for dipol
 direction  3 min pos   143,
 dipolmoment           0.000000      0.000000     -0.012645 electrons x Angstroem
 Tr[quadrupol]     -5894.147271

 energy correction for charged system         0.000000 eV
 dipol+quadrupol energy correction           -0.000009 eV
 added-field ion interaction          0.048992 eV  (added to PSCEN)


 Broyden mixing:
  rms(total) = 0.85274E-02    rms(broyden)= 0.85274E-02
  rms(prec ) = 0.14240E-01
  weight for this iteration     100.00

 eigenvalues of (default mixing * dielectric matrix)
  average eigenvalue GAMMA=   1.1463
  2.7999  2.7999  1.3610  1.3610  1.2782  1.1365  0.6891  0.6891  0.0752  0.1872
  0.2326

 Free energy of the ion-electron system (eV)
  ---------------------------------------------------
  alpha Z        PSCENC =       691.51615168
  Ewald energy   TEWEN  =     72088.03676119
  -1/2 Hartree   DENC   =    -95527.15544390
  -exchange  EXHF       =         0.00000000
  -V(xc)+E(xc)   XCENC  =     -1549.80726762
  PAW double counting   =     29879.90849959   -27664.30925424
  entropy T*S    EENTRO =        -0.02514233
  eigenvalues    EBANDS =      -171.11328432
  atomic energy  EATOM  =     21834.28239775
  ---------------------------------------------------
  free energy    TOTEN  =      -418.66658219 eV

  energy without entropy =     -418.64143986  energy(sigma->0) =     -418.65401103


--------------------------------------------------------------------------------------------------------




----------------------------------------- Iteration    1(  19)  ---------------------------------------


    POTLOK:  cpu time    0.48: real time    0.48
    SETDIJ:  cpu time    0.04: real time    0.04
    EDDIAG:  cpu time    5.89: real time    5.90
  RMM-DIIS:  cpu time   15.48: real time   15.52
    ORTHCH:  cpu time    0.78: real time    0.79
       DOS:  cpu time    0.00: real time    0.00
    CHARGE:  cpu time    1.94: real time    1.94
    MIXING:  cpu time    0.02: real time    0.02
    --------------------------------------------
      LOOP:  cpu time   24.63: real time   24.69

 eigenvalue-minimisations  :  1571
 total energy-change (2. order) : 0.5257339E-03  (-0.1495028E-03)
 number of electron     384.0000011 magnetization 
 augmentation part      131.8021835 magnetization 

 DIPCOR: dipole corrections for dipol
 direction  3 min pos   143,
 dipolmoment           0.000000      0.000000     -0.015976 electrons x Angstroem
 Tr[quadrupol]     -5894.732912

 energy correction for charged system         0.000000 eV
 dipol+quadrupol energy correction           -0.000015 eV
 added-field ion interaction          0.061900 eV  (added to PSCEN)


 Broyden mixing:
  rms(total) = 0.12120E-01    rms(broyden)= 0.12120E-01
  rms(prec ) = 0.22230E-01
  weight for this iteration     100.00

 eigenvalues of (default mixing * dielectric matrix)
  average eigenvalue GAMMA=   1.2553
  4.0553  2.6172  1.8863  1.3184  1.3184  0.9955  0.9955  0.6907  0.6907  0.0752
  0.1872  0.2326

 Free energy of the ion-electron system (eV)
  ---------------------------------------------------
  alpha Z        PSCENC =       691.52905352
  Ewald energy   TEWEN  =     72088.03676119
  -1/2 Hartree   DENC   =    -95535.42712778
  -exchange  EXHF       =         0.00000000
  -V(xc)+E(xc)   XCENC  =     -1549.77559165
  PAW double counting   =     29860.06568808   -27644.27371594
  entropy T*S    EENTRO =        -0.02518975
  eigenvalues    EBANDS =      -163.07833190
  atomic energy  EATOM  =     21834.28239775
  ---------------------------------------------------
  free energy    TOTEN  =      -418.66605646 eV

  energy without entropy =     -418.64086671  energy(sigma->0) =     -418.65346159


--------------------------------------------------------------------------------------------------------




----------------------------------------- Iteration    1(  20)  ---------------------------------------


    POTLOK:  cpu time    0.48: real time    0.48
    SETDIJ:  cpu time    0.04: real time    0.04
    EDDIAG:  cpu time    5.91: real time    5.92
  RMM-DIIS:  cpu time   15.78: real time   15.81
    ORTHCH:  cpu time    0.79: real time    0.79
       DOS:  cpu time    0.00: real time    0.00
    CHARGE:  cpu time    1.93: real time    1.93
    MIXING:  cpu time    0.02: real time    0.02
    --------------------------------------------
      LOOP:  cpu time   24.95: real time   25.00

 eigenvalue-minimisations  :  1583
 total energy-change (2. order) :-0.4759165E-02  (-0.1981415E-03)
 number of electron     384.0000011 magnetization 
 augmentation part      131.7989859 magnetization 

 DIPCOR: dipole corrections for dipol
 direction  3 min pos   138,
 dipolmoment           0.000000      0.000000     -0.050847 electrons x Angstroem
 Tr[quadrupol]     -5895.236594

 energy correction for charged system         0.000000 eV
 dipol+quadrupol energy correction           -0.000153 eV
 added-field ion interaction          1.266974 eV  (added to PSCEN)


 Broyden mixing:
  rms(total) = 0.48158E-01    rms(broyden)= 0.48158E-01
  rms(prec ) = 0.10608E+00
  weight for this iteration     100.00

 eigenvalues of (default mixing * dielectric matrix)
  average eigenvalue GAMMA=   1.1615
  4.0805  2.6148  1.8569  1.3159  1.3159  0.9776  0.9776  0.6912  0.6912  0.2326
  0.1872  0.0752  0.0834

 Free energy of the ion-electron system (eV)
  ---------------------------------------------------
  alpha Z        PSCENC =       692.73398977
  Ewald energy   TEWEN  =     72088.03676119
  -1/2 Hartree   DENC   =    -95541.77745435
  -exchange  EXHF       =         0.00000000
  -V(xc)+E(xc)   XCENC  =     -1549.75176932
  PAW double counting   =     29860.93999299   -27645.20022883
  entropy T*S    EENTRO =        -0.02529185
  eigenvalues    EBANDS =      -157.90921298
  atomic energy  EATOM  =     21834.28239775
  ---------------------------------------------------
  free energy    TOTEN  =      -418.67081563 eV

  energy without entropy =     -418.64552378  energy(sigma->0) =     -418.65816970


--------------------------------------------------------------------------------------------------------




----------------------------------------- Iteration    1(  21)  ---------------------------------------


    POTLOK:  cpu time    0.48: real time    0.48
    SETDIJ:  cpu time    0.04: real time    0.04
    EDDIAG:  cpu time    5.91: real time    5.92
  RMM-DIIS:  cpu time   17.29: real time   17.33
    ORTHCH:  cpu time    0.77: real time    0.77
       DOS:  cpu time    0.00: real time    0.00
    CHARGE:  cpu time    1.94: real time    1.94
    MIXING:  cpu time    0.02: real time    0.02
    --------------------------------------------
      LOOP:  cpu time   26.45: real time   26.51

 eigenvalue-minimisations  :  1777
 total energy-change (2. order) :-0.5561643E-03  (-0.3468778E-04)
 number of electron     384.0000011 magnetization 
 augmentation part      131.7981823 magnetization 

 DIPCOR: dipole corrections for dipol
 direction  3 min pos   136,
 dipolmoment           0.000000      0.000000     -0.060266 electrons x Angstroem
 Tr[quadrupol]     -5895.256424

 energy correction for charged system         0.000000 eV
 dipol+quadrupol energy correction           -0.000215 eV
 added-field ion interaction          2.008939 eV  (added to PSCEN)


 Broyden mixing:
  rms(total) = 0.49672E-01    rms(broyden)= 0.49672E-01
  rms(prec ) = 0.11062E+00
  weight for this iteration     100.00

 eigenvalues of (default mixing * dielectric matrix)
  average eigenvalue GAMMA=   1.1294
  4.0904  2.6117  1.8356  1.3118  1.3118  0.9481  0.9481  0.6929  0.6929  0.0752
  0.1872  0.2326  0.4996  0.3733

 Free energy of the ion-electron system (eV)
  ---------------------------------------------------
  alpha Z        PSCENC =       693.47589305
  Ewald energy   TEWEN  =     72088.03676119
  -1/2 Hartree   DENC   =    -95541.97509003
  -exchange  EXHF       =         0.00000000
  -V(xc)+E(xc)   XCENC  =     -1549.75185864
  PAW double counting   =     29860.36870555   -27644.61232978
  entropy T*S    EENTRO =        -0.02531518
  eigenvalues    EBANDS =      -158.47053570
  atomic energy  EATOM  =     21834.28239775
  ---------------------------------------------------
  free energy    TOTEN  =      -418.67137179 eV

  energy without entropy =     -418.64605661  energy(sigma->0) =     -418.65871420


--------------------------------------------------------------------------------------------------------




----------------------------------------- Iteration    1(  22)  ---------------------------------------


    POTLOK:  cpu time    0.51: real time    0.51
    SETDIJ:  cpu time    0.04: real time    0.04
    EDDIAG:  cpu time    5.89: real time    5.90
  RMM-DIIS:  cpu time   15.94: real time   15.97
    ORTHCH:  cpu time    0.76: real time    0.77
       DOS:  cpu time    0.00: real time    0.00
    CHARGE:  cpu time    1.96: real time    1.96
    MIXING:  cpu time    0.02: real time    0.02
    --------------------------------------------
      LOOP:  cpu time   25.12: real time   25.18

 eigenvalue-minimisations  :  1631
 total energy-change (2. order) :-0.1906140E-02  (-0.8108157E-05)
 number of electron     384.0000011 magnetization 
 augmentation part      131.7981204 magnetization 

 DIPCOR: dipole corrections for dipol
 direction  3 min pos   135,
 dipolmoment           0.000000      0.000000     -0.067258 electrons x Angstroem
 Tr[quadrupol]     -5895.265979

 energy correction for charged system         0.000000 eV
 dipol+quadrupol energy correction           -0.000268 eV
 added-field ion interaction          2.525082 eV  (added to PSCEN)


 Broyden mixing:
  rms(total) = 0.58152E-01    rms(broyden)= 0.58152E-01
  rms(prec ) = 0.12926E+00
  weight for this iteration     100.00

 eigenvalues of (default mixing * dielectric matrix)
  average eigenvalue GAMMA=   1.1702
  4.1731  2.8751  2.2413  1.3769  1.3769  1.0338  1.0338  0.8626  0.6897  0.6897
  0.0752  0.1872  0.2326  0.3638  0.3418

 Free energy of the ion-electron system (eV)
  ---------------------------------------------------
  alpha Z        PSCENC =       693.99198350
  Ewald energy   TEWEN  =     72088.03676119
  -1/2 Hartree   DENC   =    -95541.97172726
  -exchange  EXHF       =         0.00000000
  -V(xc)+E(xc)   XCENC  =     -1549.75190429
  PAW double counting   =     29860.40490896   -27644.64886661
  entropy T*S    EENTRO =        -0.02534478
  eigenvalues    EBANDS =      -158.99148640
  atomic energy  EATOM  =     21834.28239775
  ---------------------------------------------------
  free energy    TOTEN  =      -418.67327793 eV

  energy without entropy =     -418.64793315  energy(sigma->0) =     -418.66060554


--------------------------------------------------------------------------------------------------------




----------------------------------------- Iteration    1(  23)  ---------------------------------------


    POTLOK:  cpu time    0.49: real time    0.49
    SETDIJ:  cpu time    0.04: real time    0.04
    EDDIAG:  cpu time    6.14: real time    6.16
  RMM-DIIS:  cpu time   15.26: real time   15.30
    ORTHCH:  cpu time    0.80: real time    0.80
       DOS:  cpu time    0.00: real time    0.00
    CHARGE:  cpu time    1.93: real time    1.93
    MIXING:  cpu time    0.02: real time    0.02
    --------------------------------------------
      LOOP:  cpu time   24.69: real time   24.75

 eigenvalue-minimisations  :  1539
 total energy-change (2. order) :-0.8315248E-03  (-0.7175010E-05)
 number of electron     384.0000011 magnetization 
 augmentation part      131.7938926 magnetization 

 DIPCOR: dipole corrections for dipol
 direction  3 min pos   135,
 dipolmoment           0.000000      0.000000     -0.061830 electrons x Angstroem
 Tr[quadrupol]     -5895.410888

 energy correction for charged system         0.000000 eV
 dipol+quadrupol energy correction           -0.000226 eV
 added-field ion interaction          2.321305 eV  (added to PSCEN)


 Broyden mixing:
  rms(total) = 0.60475E-01    rms(broyden)= 0.60475E-01
  rms(prec ) = 0.13381E+00
  weight for this iteration     100.00

 eigenvalues of (default mixing * dielectric matrix)
  average eigenvalue GAMMA=   1.2272
  4.3241  3.4062  2.1346  1.6306  1.3721  1.2096  1.2096  0.9362  0.6922  0.6922
  0.0752  0.1872  0.2326  0.5479  0.5479  0.4372

 Free energy of the ion-electron system (eV)
  ---------------------------------------------------
  alpha Z        PSCENC =       693.78824795
  Ewald energy   TEWEN  =     72088.03676119
  -1/2 Hartree   DENC   =    -95543.38651327
  -exchange  EXHF       =         0.00000000
  -V(xc)+E(xc)   XCENC  =     -1549.74984593
  PAW double counting   =     29864.43141082   -27648.72630594
  entropy T*S    EENTRO =        -0.02533824
  eigenvalues    EBANDS =      -157.32492380
  atomic energy  EATOM  =     21834.28239775
  ---------------------------------------------------
  free energy    TOTEN  =      -418.67410945 eV

  energy without entropy =     -418.64877122  energy(sigma->0) =     -418.66144034


--------------------------------------------------------------------------------------------------------




----------------------------------------- Iteration    1(  24)  ---------------------------------------


    POTLOK:  cpu time    0.52: real time    0.52
    SETDIJ:  cpu time    0.04: real time    0.04
    EDDIAG:  cpu time    5.92: real time    5.94
  RMM-DIIS:  cpu time   15.34: real time   15.38
    ORTHCH:  cpu time    0.78: real time    0.79
       DOS:  cpu time    0.00: real time    0.00
    CHARGE:  cpu time    1.91: real time    1.91
    MIXING:  cpu time    0.02: real time    0.03
    --------------------------------------------
      LOOP:  cpu time   24.55: real time   24.60

 eigenvalue-minimisations  :  1555
 total energy-change (2. order) :-0.1671627E-01  (-0.1218149E-03)
 number of electron     384.0000011 magnetization 
 augmentation part      131.7957265 magnetization 

 DIPCOR: dipole corrections for dipol
 direction  3 min pos   135,
 dipolmoment           0.000000      0.000000     -0.064489 electrons x Angstroem
 Tr[quadrupol]     -5895.625592

 energy correction for charged system         0.000000 eV
 dipol+quadrupol energy correction           -0.000246 eV
 added-field ion interaction          2.421117 eV  (added to PSCEN)


 Broyden mixing:
  rms(total) = 0.11145E+00    rms(broyden)= 0.11145E+00
  rms(prec ) = 0.24100E+00
  weight for this iteration     100.00

 eigenvalues of (default mixing * dielectric matrix)
  average eigenvalue GAMMA=   1.2770
  4.9001  3.5714  2.1172  2.0178  1.3249  1.2530  1.2530  0.0752  0.1872  0.2326
  0.9433  0.7493  0.7493  0.6859  0.6859  0.4397  0.5240

 Free energy of the ion-electron system (eV)
  ---------------------------------------------------
  alpha Z        PSCENC =       693.88804034
  Ewald energy   TEWEN  =     72088.03676119
  -1/2 Hartree   DENC   =    -95544.81968071
  -exchange  EXHF       =         0.00000000
  -V(xc)+E(xc)   XCENC  =     -1549.74861844
  PAW double counting   =     29861.55572950   -27645.82104765
  entropy T*S    EENTRO =        -0.02548282
  eigenvalues    EBANDS =      -156.03892489
  atomic energy  EATOM  =     21834.28239775
  ---------------------------------------------------
  free energy    TOTEN  =      -418.69082573 eV

  energy without entropy =     -418.66534291  energy(sigma->0) =     -418.67808432


--------------------------------------------------------------------------------------------------------




----------------------------------------- Iteration    1(  25)  ---------------------------------------


    POTLOK:  cpu time    0.48: real time    0.48
    SETDIJ:  cpu time    0.04: real time    0.04
    EDDIAG:  cpu time    5.90: real time    5.92
[...]
    SETDIJ:  cpu time    0.04: real time    0.04
    EDDIAG:  cpu time    5.86: real time    5.88
  RMM-DIIS:  cpu time   12.73: real time   12.76
    ORTHCH:  cpu time    0.78: real time    0.79
       DOS:  cpu time    0.00: real time    0.00
    CHARGE:  cpu time    1.88: real time    1.89
    MIXING:  cpu time    0.01: real time    0.01
    --------------------------------------------
      LOOP:  cpu time   21.81: real time   21.86

 eigenvalue-minimisations  :  1219
 total energy-change (2. order) : 0.2019482E-05  (-0.4614536E-06)
 number of electron     384.0000006 magnetization 
 augmentation part      131.7074892 magnetization 

 DIPCOR: dipole corrections for dipol
 direction  3 min pos   144,
 dipolmoment           0.000000      0.000000     -0.013904 electrons x Angstroem
 Tr[quadrupol]     -5895.571581

 energy correction for charged system         0.000000 eV
 dipol+quadrupol energy correction           -0.000011 eV
 added-field ion interaction         -0.032441 eV  (added to PSCEN)


 eigenvalues of (default mixing * dielectric matrix)
  average eigenvalue GAMMA=   0.6701
  2.0687  0.0622  0.3373  0.2121

  free energy =  -0.418957187921E+03  energy without entropy=  -0.418934175191E+03


--------------------------------------------------------------------------------------------------------




----------------------------------------- Iteration   10(   6)  ---------------------------------------


    POTLOK:  cpu time    0.48: real time    0.48
    SETDIJ:  cpu time    0.04: real time    0.04
    EDDIAG:  cpu time    6.16: real time    6.17
  RMM-DIIS:  cpu time   11.08: real time   11.11
    ORTHCH:  cpu time    0.79: real time    0.79
       DOS:  cpu time    0.00: real time    0.00
    CHARGE:  cpu time    1.88: real time    1.89
    MIXING:  cpu time    0.01: real time    0.01
    --------------------------------------------
      LOOP:  cpu time   20.43: real time   20.49

 eigenvalue-minimisations  :  1055
 total energy-change (2. order) : 0.1438722E-05  (-0.3499044E-06)
 number of electron     384.0000006 magnetization 
 augmentation part      131.7075344 magnetization 

 DIPCOR: dipole corrections for dipol
 direction  3 min pos   144,
 dipolmoment           0.000000      0.000000     -0.013898 electrons x Angstroem
 Tr[quadrupol]     -5895.572442

 energy correction for charged system         0.000000 eV
 dipol+quadrupol energy correction           -0.000011 eV
 added-field ion interaction         -0.032426 eV  (added to PSCEN)


 eigenvalues of (default mixing * dielectric matrix)
  average eigenvalue GAMMA=   0.8158
  2.7641  0.8034  0.0622  0.2046  0.2448

  free energy =  -0.418957186482E+03  energy without entropy=  -0.418934182068E+03


--------------------------------------------------------------------------------------------------------




----------------------------------------- Iteration   10(   7)  ---------------------------------------


    POTLOK:  cpu time    0.52: real time    0.52
    SETDIJ:  cpu time    0.04: real time    0.04
    EDDIAG:  cpu time    5.91: real time    5.92
  RMM-DIIS:  cpu time    8.87: real time    8.89
    ORTHCH:  cpu time    0.77: real time    0.77
       DOS:  cpu time    0.00: real time    0.00
    CHARGE:  cpu time    1.91: real time    1.91
    MIXING:  cpu time    0.01: real time    0.01
    --------------------------------------------
      LOOP:  cpu time   18.03: real time   18.08

 eigenvalue-minimisations  :   781
 total energy-change (2. order) : 0.1093413E-05  (-0.8070969E-07)
 number of electron     384.0000006 magnetization 
 augmentation part      131.7076134 magnetization 

 DIPCOR: dipole corrections for dipol
 direction  3 min pos   144,
 dipolmoment           0.000000      0.000000     -0.013849 electrons x Angstroem
 Tr[quadrupol]     -5895.571926

 energy correction for charged system         0.000000 eV
 dipol+quadrupol energy correction           -0.000011 eV
 added-field ion interaction         -0.032311 eV  (added to PSCEN)


 eigenvalues of (default mixing * dielectric matrix)
  average eigenvalue GAMMA=   0.8350
  2.5318  0.9834  0.9834  0.0622  0.2025  0.2469

  free energy =  -0.418957185388E+03  energy without entropy=  -0.418934179177E+03


--------------------------------------------------------------------------------------------------------




----------------------------------------- Iteration   10(   8)  ---------------------------------------


    POTLOK:  cpu time    0.48: real time    0.48
    SETDIJ:  cpu time    0.04: real time    0.04
    EDDIAG:  cpu time    5.92: real time    5.93
  RMM-DIIS:  cpu time    8.73: real time    8.75
    ORTHCH:  cpu time    0.76: real time    0.77
       DOS:  cpu time    0.00: real time    0.00
    --------------------------------------------
      LOOP:  cpu time   15.93: real time   15.97

 eigenvalue-minimisations  :   762
 total energy-change (2. order) :-0.6648042E-07  (-0.1486158E-07)
 number of electron     384.0000006 magnetization 
 augmentation part      131.7076134 magnetization 

 DIPCOR: dipole corrections for dipol
 direction  3 min pos   144,
 dipolmoment           0.000000      0.000000     -0.013879 electrons x Angstroem
 Tr[quadrupol]     -5895.571664

 energy correction for charged system         0.000000 eV
 dipol+quadrupol energy correction           -0.000011 eV
 added-field ion interaction         -0.032381 eV  (added to PSCEN)


  free energy =  -0.418957185455E+03  energy without entropy=  -0.418934178107E+03


--------------------------------------------------------------------------------------------------------




------------------------ aborting loop because EDIFF is reached ----------------------------------------


    CHARGE:  cpu time    1.89: real time    1.90
    FORLOC:  cpu time    0.11: real time    0.11
    FORNL :  cpu time    7.84: real time    7.85
    STRESS:  cpu time   23.72: real time   23.78
    FORCOR:  cpu time    0.58: real time    0.58
    FORHAR:  cpu time    0.21: real time    0.21
    MIXING:  cpu time    0.02: real time    0.01

  Number of pair interactions contributing to vdW energy:  201396
  Estimated vdW energy (eV):  -4.12279
    FORVDW:  cpu time    0.03: real time    0.03

  FORCE on cell =-STRESS in cart. coord.  units (eV):
  Direction    XX          YY          ZZ          XY          YZ          ZX
  --------------------------------------------------------------------------------------
  Alpha Z   691.46717   691.46717   691.46717
  Ewald   92065.43817 92065.43817************     0.00000     0.00000     0.00000
  Hartree 96915.50235 96915.50235-95925.99168     0.00000     0.00000     0.00000
  E(xc)   -1809.40895 -1809.40911 -1815.39052     0.00014     0.00000     0.00000
  Local  ************************199495.24318     0.00116     0.00000     0.00000
  n-local   554.49392   549.07492   487.16402    -4.69294    -2.97031    -1.73533
  augment  2165.11171  2165.11313  2178.90010    -0.00123    -0.00001     0.00000
  Kinetic  4481.88197  4472.25557  4536.73339    -8.33689     7.59243     4.38350
  Fock        0.00000     0.00000     0.00000     0.00000     0.00000     0.00000
  -------------------------------------------------------------------------------------
  Total     -44.34872   -44.34872   -16.15068     0.00000     0.00000     0.00000
  in kB     -46.47718   -46.47718   -16.92581     0.00000     0.00000     0.00000
  external pressure =      -36.63 kB  Pullay stress =        0.00 kB



--------------------------------------------------------------------------------------------------------



  FREE ENERGIE OF THE ION-ELECTRON SYSTEM (eV)
  ---------------------------------------------------
  free  energy   TOTEN  =      -423.07997233 eV

  energy  without entropy=     -423.05696498  energy(sigma->0) =     -423.06846866
 
 d Force = 0.8221978E-05[-0.809E-06, 0.173E-04]  d Energy =-0.1416412E-04 0.224E-04
 d Force = 0.8378768E+01[ 0.838E+01, 0.838E+01]  d Ewald  = 0.8378768E+01-0.306E-08


--------------------------------------------------------------------------------------------------------


    POTLOK:  cpu time    0.52: real time    0.53


--------------------------------------------------------------------------------------------------------


 Quasi-Newton relaxation of ions (Broydens 2nd method)
  g(Force)  = 0.101E-04   g(Stress)= 0.000E+00

 retain information from N=  1 steps
 eigenvalues of (default step * inverse Hessian matrix)
  average eigenvalue of G=   4.8008
 eigenvalue spectrum of G is  4.8008


--------------------------------------------------------------------------------------------------------


    WAVPRE:  cpu time    0.13: real time    0.13
 FEWALD executed in parallel
    FEWALD:  cpu time    0.01: real time    0.01
    ORTHCH:  cpu time    3.32: real time    3.32
     LOOP+:  cpu time  219.25: real time  219.80


----------------------------------------- Iteration   11(   1)  ---------------------------------------


    POTLOK:  cpu time    0.52: real time    0.53
    SETDIJ:  cpu time    0.06: real time    0.05
     EDDAV:  cpu time   29.01: real time   29.07
       DOS:  cpu time    0.00: real time    0.01
    CHARGE:  cpu time    1.88: real time    1.89
    MIXING:  cpu time    0.01: real time    0.01
    --------------------------------------------
      LOOP:  cpu time   31.49: real time   31.56

 eigenvalue-minimisations  :  1568
 total energy-change (2. order) : 0.5763525E-04  (-0.1159613E-03)
 number of electron     384.0000006 magnetization 
 augmentation part      131.7073324 magnetization 

 DIPCOR: dipole corrections for dipol
 direction  3 min pos   144,
 dipolmoment           0.000000      0.000000     -0.013860 electrons x Angstroem
 Tr[quadrupol]     -5895.571494

 energy correction for charged system         0.000000 eV
 dipol+quadrupol energy correction           -0.000011 eV
 added-field ion interaction         -0.032371 eV  (added to PSCEN)


  free energy =  -0.418957127753E+03  energy without entropy=  -0.418934182817E+03


--------------------------------------------------------------------------------------------------------




----------------------------------------- Iteration   11(   2)  ---------------------------------------


    POTLOK:  cpu time    0.49: real time    0.49
    SETDIJ:  cpu time    0.04: real time    0.04
    EDDIAG:  cpu time    5.92: real time    5.93
  RMM-DIIS:  cpu time   15.28: real time   15.32
    ORTHCH:  cpu time    0.77: real time    0.77
       DOS:  cpu time    0.00: real time    0.00
    CHARGE:  cpu time    1.91: real time    1.92
    MIXING:  cpu time    0.01: real time    0.01
    --------------------------------------------
      LOOP:  cpu time   24.41: real time   24.48

 eigenvalue-minimisations  :  1528
 total energy-change (2. order) :-0.1720602E-04  (-0.2231313E-05)
 number of electron     384.0000006 magnetization 
 augmentation part      131.7075145 magnetization 

 DIPCOR: dipole corrections for dipol
 direction  3 min pos   144,
 dipolmoment           0.000000      0.000000     -0.014611 electrons x Angstroem
 Tr[quadrupol]     -5895.572751

 energy correction for charged system         0.000000 eV
 dipol+quadrupol energy correction           -0.000013 eV
 added-field ion interaction         -0.034125 eV  (added to PSCEN)


 eigenvalues of (default mixing * dielectric matrix)
  average eigenvalue GAMMA=   0.1201
  0.1201

  free energy =  -0.418957144959E+03  energy without entropy=  -0.418934165726E+03


--------------------------------------------------------------------------------------------------------




----------------------------------------- Iteration   11(   3)  ---------------------------------------


    POTLOK:  cpu time    0.50: real time    0.50
    SETDIJ:  cpu time    0.04: real time    0.04
    EDDIAG:  cpu time    5.90: real time    5.92
  RMM-DIIS:  cpu time   11.71: real time   11.74
    ORTHCH:  cpu time    0.77: real time    0.77
       DOS:  cpu time    0.00: real time    0.00
    CHARGE:  cpu time    1.90: real time    1.90
    MIXING:  cpu time    0.01: real time    0.01
    --------------------------------------------
      LOOP:  cpu time   20.83: real time   20.88

 eigenvalue-minimisations  :  1113
 total energy-change (2. order) : 0.1416841E-04  (-0.3667377E-06)
 number of electron     384.0000005 magnetization 
 augmentation part      131.7075711 magnetization 

 DIPCOR: dipole corrections for dipol
 direction  3 min pos   144,
 dipolmoment           0.000000      0.000000     -0.013664 electrons x Angstroem
 Tr[quadrupol]     -5895.572286

 energy correction for charged system         0.000000 eV
 dipol+quadrupol energy correction           -0.000011 eV
 added-field ion interaction         -0.031912 eV  (added to PSCEN)


 eigenvalues of (default mixing * dielectric matrix)
  average eigenvalue GAMMA=   0.1614
  0.2692  0.0537

  free energy =  -0.418957130791E+03  energy without entropy=  -0.418934190663E+03


--------------------------------------------------------------------------------------------------------




----------------------------------------- Iteration   11(   4)  ---------------------------------------


    POTLOK:  cpu time    0.51: real time    0.51
    SETDIJ:  cpu time    0.04: real time    0.04
    EDDIAG:  cpu time    5.91: real time    5.92
  RMM-DIIS:  cpu time    9.25: real time    9.27
    ORTHCH:  cpu time    0.77: real time    0.77
       DOS:  cpu time    0.00: real time    0.00
    CHARGE:  cpu time    1.89: real time    1.90
    MIXING:  cpu time    0.01: real time    0.01
    --------------------------------------------
      LOOP:  cpu time   18.39: real time   18.43

 eigenvalue-minimisations  :   829
 total energy-change (2. order) : 0.1899873E-05  (-0.1047403E-06)
 number of electron     384.0000005 magnetization 
 augmentation part      131.7075692 magnetization 

 DIPCOR: dipole corrections for dipol
 direction  3 min pos   144,
 dipolmoment           0.000000      0.000000     -0.013812 electrons x Angstroem
 Tr[quadrupol]     -5895.571204

 energy correction for charged system         0.000000 eV
 dipol+quadrupol energy correction           -0.000011 eV
 added-field ion interaction         -0.032260 eV  (added to PSCEN)


 eigenvalues of (default mixing * dielectric matrix)
  average eigenvalue GAMMA=   0.7328
  1.9346  0.2016  0.0623

  free energy =  -0.418957128891E+03  energy without entropy=  -0.418934182772E+03


--------------------------------------------------------------------------------------------------------




----------------------------------------- Iteration   11(   5)  ---------------------------------------


    POTLOK:  cpu time    0.50: real time    0.50
    SETDIJ:  cpu time    0.04: real time    0.04
    EDDIAG:  cpu time    5.91: real time    5.92
  RMM-DIIS:  cpu time    8.68: real time    8.70
    ORTHCH:  cpu time    0.82: real time    0.82
       DOS:  cpu time    0.00: real time    0.00
    --------------------------------------------
      LOOP:  cpu time   15.95: real time   15.99

 eigenvalue-minimisations  :   773
 total energy-change (2. order) : 0.1075787E-06  (-0.6219715E-07)
 number of electron     384.0000005 magnetization 
 augmentation part      131.7075692 magnetization 

 DIPCOR: dipole corrections for dipol
 direction  3 min pos   144,
 dipolmoment           0.000000      0.000000     -0.013835 electrons x Angstroem
 Tr[quadrupol]     -5895.571042

 energy correction for charged system         0.000000 eV
 dipol+quadrupol energy correction           -0.000011 eV
 added-field ion interaction         -0.032312 eV  (added to PSCEN)


  free energy =  -0.418957128783E+03  energy without entropy=  -0.418934182862E+03


--------------------------------------------------------------------------------------------------------




------------------------ aborting loop because EDIFF is reached ----------------------------------------


    CHARGE:  cpu time    2.00: real time    2.00
    FORLOC:  cpu time    0.11: real time    0.11
    FORNL :  cpu time    7.87: real time    7.88
    STRESS:  cpu time   23.59: real time   23.64
    FORCOR:  cpu time    0.56: real time    0.56
    FORHAR:  cpu time    0.21: real time    0.21
    MIXING:  cpu time    0.01: real time    0.01

  Number of pair interactions contributing to vdW energy:  201396
  Estimated vdW energy (eV):  -4.12286
    FORVDW:  cpu time    0.03: real time    0.03

  FORCE on cell =-STRESS in cart. coord.  units (eV):
  Direction    XX          YY          ZZ          XY          YZ          ZX
  --------------------------------------------------------------------------------------
  Alpha Z   691.46717   691.46717   691.46717
  Ewald   92067.40862 92067.40862************     0.00000     0.00000     0.00000
  Hartree 96917.56917 96917.56917-95928.06048     0.00000     0.00000     0.00000
  E(xc)   -1809.41046 -1809.41062 -1815.39318     0.00014     0.00000     0.00000
  Local  ************************199499.28481     0.00116     0.00000     0.00000
  n-local   554.50071   549.08182   487.08810    -4.69284    -2.97229    -1.73657
  augment  2165.10929  2165.11071  2178.90006    -0.00123    -0.00001     0.00001
  Kinetic  4481.88136  4472.25628  4536.74293    -8.33574     7.59384     4.38436
  Fock        0.00000     0.00000     0.00000     0.00000     0.00000     0.00000
  -------------------------------------------------------------------------------------
  Total     -44.34958   -44.34958   -16.22709     0.00000     0.00000     0.00000
  in kB     -46.47808   -46.47808   -17.00589     0.00000     0.00000     0.00000
  external pressure =      -36.65 kB  Pullay stress =        0.00 kB



--------------------------------------------------------------------------------------------------------



  FREE ENERGIE OF THE ION-ELECTRON SYSTEM (eV)
  ---------------------------------------------------
  free  energy   TOTEN  =      -423.07998438 eV

  energy  without entropy=     -423.05703846  energy(sigma->0) =     -423.06851142
 
 d Force = 0.5153263E-05[ 0.274E-06, 0.100E-04]  d Energy = 0.1205011E-04-0.690E-05
 d Force =-0.1961060E+01[-0.196E+01,-0.196E+01]  d Ewald  =-0.1961060E+01 0.509E-09


--------------------------------------------------------------------------------------------------------


    POTLOK:  cpu time    0.52: real time    0.52


--------------------------------------------------------------------------------------------------------


 Quasi-Newton relaxation of ions (Broydens 2nd method)
  g(Force)  = 0.589E-07   g(Stress)= 0.000E+00

 retain information from N=  2 steps
 eigenvalues of (default step * inverse Hessian matrix)
  average eigenvalue of G=   2.9388
 eigenvalue spectrum of G is  5.0173  0.8604


--------------------------------------------------------------------------------------------------------


  
 reached required accuracy - stopping structural energy minimisation
     LOOP+:  cpu time  146.02: real time  146.38
    4ORBIT:  cpu time    0.00: real time    0.00

 total amount of memory used by VASP on root node   212508. kBytes
========================================================================

   base      :      30000. kBytes
   nonlr-proj:      20874. kBytes
   fftplans  :      19398. kBytes
   grid      :      36920. kBytes
   one-center:        746. kBytes
   wavefun   :     104570. kBytes
 
  
  
 General timing and accounting informations for this job:
 ========================================================
  
                  Total CPU time used (sec):     4053.861
                            User time (sec):     4043.725
                          System time (sec):       10.137
                         Elapsed time (sec):     4064.181
  
                   Maximum memory used (kb):      477204.
                   Average memory used (kb):           0.
  
                          Minor page faults:      6480324
                          Major page faults:            6
                 Voluntary context switches:         2267
