 vasp.5.4.4.18Apr17-6-g9f103f2a35 (build Jun 30 2017 19:19:18) complex          
  
 executed on         MareNostrum4 date 2022.05.19  16:19:14
 running on   48 total cores
 distrk:  each k-point on   48 cores,    1 groups
 distr:  one band on NCORES_PER_BAND=   1 cores,   48 groups


--------------------------------------------------------------------------------------------------------


 INCAR:
 POTCAR:    PAW_PBE Pt 04Feb2005                  
 POTCAR:    PAW_PBE H 15Jun2001                   
 POTCAR:    PAW_PBE C 08Apr2002                   
 POTCAR:    PAW_PBE O 08Apr2002                   

 ----------------------------------------------------------------------------- 
|                                                                             |
|           W    W    AA    RRRRR   N    N  II  N    N   GGGG   !!!           |
|           W    W   A  A   R    R  NN   N  II  NN   N  G    G  !!!           |
|           W    W  A    A  R    R  N N  N  II  N N  N  G       !!!           |
|           W WW W  AAAAAA  RRRRR   N  N N  II  N  N N  G  GGG   !            |
|           WW  WW  A    A  R   R   N   NN  II  N   NN  G    G                |
|           W    W  A    A  R    R  N    N  II  N    N   GGGG   !!!           |
|                                                                             |
|      For optimal performance we recommend to set                            |
|        NCORE= 4 - approx SQRT( number of cores)                             |
|      NCORE specifies how many cores store one orbital (NPAR=cpu/NCORE).     |
|      This setting can  greatly improve the performance of VASP for DFT.     |
|      The default,   NCORE=1            might be grossly inefficient         |
|      on modern multi-core architectures or massively parallel machines.     |
|      Do your own testing !!!!                                               |
|      Unfortunately you need to use the default for GW and RPA calculations. |
|      (for HF NCORE is supported but not extensively tested yet)             |
|                                                                             |
 ----------------------------------------------------------------------------- 

 POTCAR:    PAW_PBE Pt 04Feb2005                  
  local pseudopotential read in
  partial core-charges read in
  partial kinetic energy density read in
  atomic valenz-charges read in
  non local Contribution for L=           2  read in
    real space projection operators read in
  non local Contribution for L=           2  read in
    real space projection operators read in
  non local Contribution for L=           0  read in
    real space projection operators read in
  non local Contribution for L=           0  read in
    real space projection operators read in
  non local Contribution for L=           1  read in
    real space projection operators read in
  non local Contribution for L=           1  read in
    real space projection operators read in
    PAW grid and wavefunctions read in
 
   number of l-projection  operators is LMAX  =           6
   number of lm-projection operators is LMMAX =          18
 
 POTCAR:    PAW_PBE H 15Jun2001                   
  local pseudopotential read in
  atomic valenz-charges read in
  non local Contribution for L=           0  read in
    real space projection operators read in
  non local Contribution for L=           0  read in
    real space projection operators read in
  non local Contribution for L=           1  read in
    real space projection operators read in
    PAW grid and wavefunctions read in
 
   number of l-projection  operators is LMAX  =           3
   number of lm-projection operators is LMMAX =           5
 
 POTCAR:    PAW_PBE C 08Apr2002                   
  local pseudopotential read in
  partial core-charges read in
  partial kinetic energy density read in
  atomic valenz-charges read in
  non local Contribution for L=           0  read in
    real space projection operators read in
  non local Contribution for L=           0  read in
    real space projection operators read in
  non local Contribution for L=           1  read in
    real space projection operators read in
  non local Contribution for L=           1  read in
    real space projection operators read in
    PAW grid and wavefunctions read in
 
   number of l-projection  operators is LMAX  =           4
   number of lm-projection operators is LMMAX =           8
 
 POTCAR:    PAW_PBE O 08Apr2002                   
  local pseudopotential read in
  partial core-charges read in
  partial kinetic energy density read in
  kinetic energy density of atom read in
  atomic valenz-charges read in
  non local Contribution for L=           0  read in
    real space projection operators read in
  non local Contribution for L=           0  read in
    real space projection operators read in
  non local Contribution for L=           1  read in
    real space projection operators read in
  non local Contribution for L=           1  read in
    real space projection operators read in
    PAW grid and wavefunctions read in
 
   number of l-projection  operators is LMAX  =           4
   number of lm-projection operators is LMMAX =           8
 
 Optimization of the real space projectors (new method)

 maximal supplied QI-value         = 14.36
 optimisation between [QCUT,QGAM] = [ 10.77, 21.69] = [ 32.49,131.70] Ry 
 Optimized for a Real-space Cutoff    1.46 Angstroem

   l    n(q)    QCUT    max X(q) W(low)/X(q) W(high)/X(q)  e(spline) 
   2      9    10.771    66.195    0.13E-03    0.31E-03    0.27E-06
   2      9    10.771    64.643    0.13E-03    0.32E-03    0.28E-06
   0     10    10.771    95.520    0.41E-04    0.13E-03    0.15E-06
   0     10    10.771    63.403    0.40E-04    0.12E-03    0.14E-06
   1      9    10.771    19.961    0.42E-03    0.19E-03    0.28E-06
   1      9    10.771    13.289    0.35E-03    0.16E-03    0.23E-06
 Optimization of the real space projectors (new method)

 maximal supplied QI-value         = 34.20
 optimisation between [QCUT,QGAM] = [ 10.60, 21.55] = [ 31.48,130.03] Ry 
 Optimized for a Real-space Cutoff    1.23 Angstroem

   l    n(q)    QCUT    max X(q) W(low)/X(q) W(high)/X(q)  e(spline) 
   0      8    10.603    19.460    0.37E-03    0.59E-03    0.23E-06
   0      8    10.603    12.209    0.35E-03    0.56E-03    0.22E-06
   1      7    10.603     4.655    0.70E-04    0.28E-03    0.29E-06
 Optimization of the real space projectors (new method)

 maximal supplied QI-value         = 25.13
 optimisation between [QCUT,QGAM] = [ 10.81, 21.61] = [ 32.71,130.83] Ry 
 Optimized for a Real-space Cutoff    1.23 Angstroem

   l    n(q)    QCUT    max X(q) W(low)/X(q) W(high)/X(q)  e(spline) 
   0      8    10.807   115.676    0.36E-03    0.72E-03    0.24E-06
   0      8    10.807    87.132    0.35E-03    0.71E-03    0.24E-06
   1      7    10.807     4.429    0.19E-03    0.39E-03    0.11E-06
   1      7    10.807     2.733    0.14E-03    0.28E-03    0.13E-06
 Optimization of the real space projectors (new method)

 maximal supplied QI-value         = 24.76
 optimisation between [QCUT,QGAM] = [ 10.64, 21.54] = [ 31.73,129.89] Ry 
 Optimized for a Real-space Cutoff    1.23 Angstroem

   l    n(q)    QCUT    max X(q) W(low)/X(q) W(high)/X(q)  e(spline) 
   0      8    10.645    20.381    0.38E-03    0.60E-03    0.15E-06
   0      8    10.645    15.268    0.40E-03    0.65E-03    0.17E-06
   1      7    10.645     5.964    0.30E-03    0.63E-03    0.18E-06
   1      7    10.645     5.382    0.24E-03    0.53E-03    0.16E-06
  PAW_PBE Pt 04Feb2005                  :
 energy of atom  1       EATOM= -729.1176
 kinetic energy error for atom=    0.0051 (will be added to EATOM!!)
  PAW_PBE H 15Jun2001                   :
 energy of atom  2       EATOM=  -12.4884
 kinetic energy error for atom=    0.0045 (will be added to EATOM!!)
  PAW_PBE C 08Apr2002                   :
 energy of atom  3       EATOM= -147.1560
 kinetic energy error for atom=    0.0116 (will be added to EATOM!!)
  PAW_PBE O 08Apr2002                   :
 energy of atom  4       EATOM= -432.3788
 kinetic energy error for atom=    0.0389 (will be added to EATOM!!)
 
 
 POSCAR: Pt  H  C  O                             
  positions in direct lattice
  velocities in cartesian coordinates
 exchange correlation table for  LEXCH =        8
   RHO(1)=    0.500       N(1)  =     2000
   RHO(2)=  100.500       N(2)  =     4000
 


--------------------------------------------------------------------------------------------------------


 ion  position               nearest neighbor table
   1  0.000  0.000  0.000-   2 2.81  57 2.81 101 2.81 156 2.81 102 2.81  56 2.81 114 2.81  68 2.81
                            13 2.81
   2  0.083  0.083  0.000- 102 2.81   1 2.81  57 2.81   7 2.81  13 2.81  14 2.81  15 2.81   4 2.81
                             3 2.81
   3  0.167  0.167  0.000-  10 2.81   5 2.81  17 2.81   8 2.81   4 2.81  19 2.81  15 2.81   7 2.81
                             2 2.81
   4  0.250  0.000  0.000-   5 2.81  60 2.81  16 2.81  59 2.81   3 2.81  15 2.81  71 2.81  57 2.81
                             2 2.81
   5  0.333  0.083  0.000-   3 2.81   4 2.81  97 2.81   6 2.81  60 2.81  10 2.81  18 2.81  16 2.81
                            17 2.81
   6  0.417  0.167  0.000- 103 2.81  98 2.81   5 2.81  10 2.81  11 2.81  97 2.81  22 2.81  18 2.81
                           110 2.81
   7  1.000  0.250  0.000- 102 2.81 107 2.81   2 2.81 108 2.81  14 2.81 120 2.81  19 2.81   8 2.81
                             3 2.81
   8  0.083  0.333  0.000-  49 2.81  10 2.81   9 2.81  21 2.81   3 2.81  19 2.81  20 2.81   7 2.81
                           108 2.81
   9  0.167  0.417  0.000-  50 2.81  49 2.81  52 2.81  11 2.81   8 2.81  61 2.81  10 2.81  23 2.81
                            21 2.81
  10  0.250  0.250  0.000-   3 2.81   8 2.81  11 2.81   6 2.81   9 2.81   5 2.81  22 2.81  21 2.81
                            17 2.81
  11  0.333  0.333  0.000-  52 2.81   9 2.81  10 2.81 103 2.81  12 2.81   6 2.81  22 2.81  23 2.81
                            24 2.81
  12  0.417  0.417  0.000-  53 2.81  52 2.81  64 2.81  11 2.81 103 2.81 145 2.81  24 2.81 116 2.81
                           104 2.81
  13  0.083  0.000  0.115-  81 2.76  26 2.78  25 2.78  68 2.81  71 2.81  15 2.81 114 2.81  69 2.81
                            14 2.81  57 2.81   2 2.81   1 2.81
  14  0.000  0.167  0.115-  27 2.77  25 2.77 131 2.78  15 2.81 118 2.81  19 2.81 114 2.81 120 2.81
                            13 2.81   7 2.81   2 2.81 102 2.81
  15  0.167  0.083  0.115-  26 2.77  28 2.77  27 2.78  14 2.81  16 2.81  13 2.81  17 2.81  71 2.81
                            19 2.81   2 2.81   4 2.81   3 2.81
  16  0.333  0.000  0.115-  84 2.77  28 2.77  29 2.78  71 2.81  15 2.81   4 2.81  72 2.81  17 2.81
                            60 2.81   5 2.81  18 2.81 164 2.81
  17  0.250  0.167  0.115-  32 2.76  30 2.76  28 2.77  19 2.81  15 2.81   3 2.81  21 2.81  16 2.81
                            10 2.81   5 2.81  18 2.81  22 2.81
  18  0.417  0.083  0.115-  30 2.75 121 2.77  29 2.77 109 2.81 110 2.81 164 2.81  22 2.81  97 2.81
                             6 2.81   5 2.81  17 2.81  16 2.81
  19  0.083  0.250  0.115-  32 2.76  31 2.76  27 2.77  14 2.81  17 2.81  21 2.81 120 2.81  20 2.81
                            15 2.81   7 2.81   8 2.81   3 2.81
  20  1.000  0.417  0.115- 173 2.75  31 2.76 162 2.81  61 2.81 160 2.81  21 2.81 120 2.81  49 2.81
                            19 2.81 108 2.81   8 2.81  33 2.85
  21  0.167  0.333  0.115-  32 2.76  33 2.79  61 2.81  20 2.81  19 2.81   8 2.81  17 2.81  10 2.81
                             9 2.81  23 2.81  22 2.81  34 2.83
  22  0.333  0.250  0.115-  30 2.77  35 2.78  34 2.80  24 2.81 110 2.81  23 2.81  18 2.81  11 2.81
                             6 2.81  10 2.81  17 2.81  21 2.81
  23  0.250  0.417  0.115-  63 2.81  64 2.81  52 2.81  24 2.81  22 2.81  61 2.81  11 2.81   9 2.81
                            21 2.81  34 2.81  74 2.81  36 2.82
  24  0.417  0.333  0.115- 127 2.79  35 2.79  64 2.81 116 2.81  22 2.81 115 2.81  23 2.81 110 2.81
                           103 2.81  12 2.81  11 2.81  36 2.83
  25  1.000  0.084  0.227-  14 2.77 114 2.78  13 2.78  27 2.80  81 2.80 126 2.80 125 2.80 131 2.80
                            37 2.81  26 2.81  38 2.81 138 2.81
  26  0.167  0.001  0.227-  15 2.77  13 2.78  71 2.78  28 2.79  81 2.80  82 2.80  27 2.80  93 2.80
                            25 2.81  38 2.81  40 2.81  84 2.81
  27  0.083  0.167  0.227-  14 2.77  19 2.77  15 2.78  39 2.79  25 2.80 131 2.80  31 2.80  26 2.80
                            32 2.81  43 2.81  38 2.81  28 2.82
  28  0.250  0.083  0.227-  15 2.77  16 2.77  17 2.77  26 2.79  84 2.80  39 2.80  30 2.80  41 2.80
                            32 2.81  40 2.82  27 2.82  29 2.82
  29  0.418  0.999  0.227- 164 2.76  18 2.77  16 2.78 175 2.79  41 2.79  84 2.80  30 2.80 121 2.81
                           133 2.81 177 2.81  28 2.82  96 2.82
  30  0.334  0.166  0.226-  18 2.75  46 2.76  17 2.76  22 2.77  29 2.80  28 2.80  42 2.80  35 2.81
                            32 2.82 121 2.82  34 2.82  41 2.83
  31  0.000  0.334  0.227-  20 2.76  19 2.76 120 2.77  44 2.78 173 2.78  32 2.80  27 2.80 132 2.80
                           144 2.82 131 2.82  43 2.83  33 2.86
  32  0.167  0.250  0.226-  19 2.76  21 2.76  17 2.76  46 2.76  31 2.80  44 2.80  33 2.81  27 2.81
                            28 2.81  30 2.82  39 2.83  34 2.83
  33  0.087  0.417  0.229-  74 2.76  34 2.77  44 2.78  85 2.78  21 2.79  61 2.79  73 2.80  32 2.81
                           173 2.85  20 2.85  45 2.86  31 2.86
  34  0.252  0.333  0.230-  35 2.76  36 2.77  33 2.77  46 2.79  22 2.80  74 2.81  23 2.81  30 2.82
                            21 2.83  32 2.83  47 2.85  45 2.86
  35  0.416  0.251  0.228-  34 2.76  47 2.77  22 2.78  24 2.79  36 2.80 110 2.80 139 2.80 127 2.81
                            30 2.81 123 2.83  42 2.83 121 2.84
  36  0.332  0.417  0.230-  34 2.77  74 2.77  76 2.79 127 2.79  77 2.79  35 2.80  23 2.82  48 2.83
                            24 2.83  64 2.83  47 2.92  88 2.95
  37  0.000  0.001  0.342-  92 2.77  38 2.80 137 2.80 138 2.80  93 2.80  25 2.81 125 2.81 192 2.81
                            81 2.81
  38  0.083  0.084  0.342-  39 2.78  93 2.79  37 2.80 138 2.80  43 2.80  25 2.81  26 2.81  27 2.81
                            40 2.81
  39  0.166  0.166  0.341-  46 2.75  38 2.78  40 2.79  27 2.79  28 2.80  43 2.81  44 2.81  32 2.83
                            41 2.83
  40  0.250  1.000  0.342-  41 2.78  93 2.78  95 2.79  39 2.79  84 2.81  26 2.81  38 2.81  96 2.82
                            28 2.82
  41  0.334  0.081  0.341-  46 2.77  96 2.78  40 2.78  42 2.78  29 2.79  28 2.80 133 2.82  30 2.83
                            39 2.83
  42  0.421  0.159  0.340- 133 2.73  47 2.75 121 2.75 134 2.78  41 2.78  30 2.80  35 2.83 139 2.87
                            46 2.88
  43  1.000  0.250  0.342-  44 2.79 138 2.80 144 2.80 143 2.80  38 2.80  39 2.81  27 2.81 131 2.81
                            31 2.83
  44  0.083  0.333  0.340-  33 2.78  31 2.78  43 2.79 144 2.80  32 2.80  85 2.81  39 2.81  46 2.82
                            45 2.84
  45  0.169  0.415  0.348- 231 2.19  44 2.84  85 2.85  33 2.86  34 2.86  46 2.87  88 2.88  74 2.88
                            47 2.89  86 2.92
  46  0.250  0.245  0.339-  39 2.75  32 2.76  30 2.76  41 2.77  34 2.79  44 2.82  47 2.83  45 2.87
                            42 2.88
  47  0.341  0.322  0.347- 230 2.16 229 2.21  42 2.75  35 2.77 139 2.80  46 2.83  34 2.85  48 2.87
                            45 2.89  36 2.92  88 3.19
  48  0.414  0.418  0.347- 227 2.19  36 2.83 181 2.85  77 2.85 127 2.87  47 2.87  89 2.87 140 2.87
                            88 2.88 139 2.94
  49  0.000  0.500  0.000-   8 2.81   9 2.81  50 2.81  61 2.81  20 2.81 150 2.81 108 2.81 162 2.81
                           149 2.81
  50  0.083  0.583  0.000-   9 2.81 150 2.81  52 2.81  49 2.81  51 2.81  55 2.81  63 2.81  61 2.81
                            62 2.81
  51  0.167  0.667  0.000-  58 2.81  53 2.81  55 2.81  50 2.81  56 2.81  52 2.81  67 2.81  63 2.81
                            65 2.81
  52  0.250  0.500  0.000-  11 2.81   9 2.81  12 2.81  23 2.81  50 2.81  53 2.81  51 2.81  63 2.81
                            64 2.81
  53  0.333  0.583  0.000-  12 2.81  51 2.81  52 2.81  58 2.81  64 2.81  65 2.81  66 2.81 145 2.81
                            54 2.81
  54  0.417  0.667  0.000- 151 2.81 146 2.81 158 2.81  59 2.81 145 2.81  70 2.81  66 2.81  58 2.81
                            53 2.81
  55  0.000  0.750  0.000- 150 2.81  56 2.81 155 2.81  51 2.81  50 2.81 156 2.81  67 2.81  62 2.81
                           168 2.81
  56  0.083  0.833  0.000- 156 2.81  58 2.81  55 2.81  57 2.81  51 2.81   1 2.81  67 2.81  68 2.81
                            69 2.81
  57  0.167  0.917  0.000-   1 2.81  56 2.81   2 2.81  58 2.81  13 2.81  69 2.81  71 2.81  59 2.81
                             4 2.81
  58  0.250  0.750  0.000-  51 2.81  56 2.81  53 2.81  57 2.81  65 2.81  69 2.81  70 2.81  59 2.81
                            54 2.81
  59  0.333  0.833  0.000- 151 2.81  60 2.81  72 2.81  54 2.81   4 2.81  70 2.81  71 2.81  57 2.81
                            58 2.81
  60  0.417  0.917  0.000- 152 2.81  97 2.81   4 2.81  59 2.81   5 2.81 151 2.81 164 2.81  16 2.81
                            72 2.81
  61  0.083  0.500  0.115-  73 2.76  33 2.79  21 2.81  20 2.81 162 2.81  49 2.81   9 2.81  62 2.81
                            23 2.81  50 2.81  63 2.81  74 2.83
  62  1.000  0.667  0.115-  75 2.76  73 2.76 179 2.77 166 2.81 162 2.81 150 2.81 168 2.81  61 2.81
                            55 2.81  50 2.81  63 2.81  67 2.81
  63  0.167  0.583  0.115-  75 2.77  76 2.78  23 2.81  64 2.81  65 2.81  67 2.81  52 2.81  51 2.81
                            50 2.81  62 2.81  61 2.81  74 2.81
  64  0.333  0.500  0.115-  77 2.78  76 2.80  24 2.81  23 2.81 116 2.81  12 2.81  66 2.81  63 2.81
                            65 2.81  53 2.81  52 2.81  36 2.83
  65  0.250  0.667  0.115-  78 2.75  80 2.76  66 2.81  67 2.81  70 2.81  63 2.81  69 2.81  64 2.81
                            58 2.81  53 2.81  51 2.81  76 2.81
  66  0.417  0.583  0.115- 169 2.76  78 2.76 116 2.81  65 2.81 157 2.81  64 2.81 158 2.81  70 2.81
                            53 2.81 145 2.81  54 2.81  77 2.81
  67  0.083  0.750  0.115-  75 2.75  80 2.76  79 2.77  69 2.81  65 2.81  63 2.81  68 2.81  56 2.81
                            51 2.81  55 2.81  62 2.81 168 2.81
  68  0.000  0.917  0.115-  79 2.76 125 2.77  81 2.78  13 2.81  69 2.81 114 2.81  67 2.81   1 2.81
                            56 2.81 156 2.81 112 2.81 168 2.81
  69  0.167  0.833  0.115-  80 2.74  81 2.77  82 2.78  71 2.81  67 2.81  70 2.81  68 2.81  65 2.81
                            13 2.81  58 2.81  57 2.81  56 2.81
  70  0.333  0.750  0.115-  78 2.75  83 2.77  82 2.78  65 2.81  69 2.81  72 2.81 158 2.81  71 2.81
                            66 2.81  58 2.81  59 2.81  54 2.81
  71  0.250  0.917  0.115-  82 2.76  26 2.78  84 2.78  69 2.81  13 2.81  16 2.81  72 2.81  15 2.81
                            70 2.81  57 2.81   4 2.81  59 2.81
  72  0.417  0.833  0.115-  83 2.76  84 2.78 175 2.78  70 2.81  71 2.81  59 2.81 158 2.81  16 2.81
                           151 2.81  60 2.81 164 2.81 163 2.81
  73  1.000  0.583  0.226-  86 2.75 162 2.76  61 2.76  62 2.76 173 2.80  33 2.80 174 2.81 179 2.81
                            85 2.81  75 2.82 186 2.83  74 2.83
  74  0.168  0.500  0.230-  76 2.76  33 2.76  36 2.77  86 2.79  34 2.81  23 2.81  63 2.81  75 2.83
                            73 2.83  61 2.83  88 2.84  45 2.88
  75  0.083  0.668  0.226-  67 2.75  62 2.76  86 2.77  63 2.77 179 2.80  79 2.80  76 2.80  87 2.81
                            80 2.82  73 2.82  74 2.83  91 2.83
  76  0.249  0.582  0.229-  74 2.76  88 2.78  63 2.78  36 2.79  89 2.79  64 2.80  75 2.80  77 2.81
                            65 2.81  87 2.83  78 2.84  80 2.84
  77  0.416  0.499  0.228- 127 2.76  64 2.78 181 2.78  89 2.78 116 2.79  36 2.79  66 2.81  76 2.81
                           129 2.82 169 2.83  78 2.84  48 2.85
  78  0.333  0.667  0.226-  89 2.73  70 2.75  65 2.75  66 2.76  80 2.80 169 2.81  82 2.81  83 2.82
                            90 2.83  94 2.83  77 2.84  76 2.84
  79  0.000  0.834  0.227-  68 2.76  67 2.77 168 2.78 125 2.79  91 2.79 180 2.80  75 2.80  80 2.80
                            92 2.81  81 2.81 192 2.82 179 2.82
  80  0.167  0.751  0.226-  69 2.74  87 2.75  65 2.76  67 2.76  78 2.80  81 2.80  79 2.80  82 2.81
                            75 2.82  94 2.82  92 2.83  76 2.84
  81  0.084  0.918  0.227-  13 2.76  69 2.77  68 2.78  92 2.79  26 2.80  25 2.80 125 2.80  80 2.80
                            82 2.80  93 2.81  79 2.81  37 2.81
  82  0.250  0.834  0.227-  71 2.76  70 2.78  69 2.78  94 2.79  84 2.80  83 2.80  26 2.80  81 2.80
                            80 2.81  78 2.81  95 2.81  93 2.82
  83  0.416  0.751  0.227-  72 2.76  70 2.77 158 2.77  90 2.79  84 2.80  82 2.80 175 2.80 171 2.80
                           187 2.81  95 2.81 169 2.82  78 2.82
  84  0.334  0.917  0.227-  16 2.77  72 2.78  71 2.78  82 2.80  28 2.80  29 2.80  83 2.80  95 2.81
                            40 2.81  96 2.81 175 2.81  26 2.81
  85  0.000  0.500  0.341-  33 2.78 173 2.80  86 2.80 185 2.80 144 2.80  44 2.81  73 2.81 186 2.82
                            45 2.85
  86  0.078  0.588  0.339- 186 2.74  73 2.75  75 2.77  91 2.77  88 2.79  74 2.79  85 2.80  87 2.89
                            45 2.92
  87  0.163  0.674  0.340-  92 2.73  88 2.75  80 2.75  94 2.78  91 2.78  75 2.81  76 2.83  89 2.87
                            86 2.89
  88  0.243  0.511  0.348- 228 2.17 232 2.19  87 2.75  76 2.78  86 2.79  89 2.83  74 2.84  45 2.88
                            48 2.88  36 2.95  47 3.19
  89  0.334  0.589  0.339-  78 2.73  90 2.75  94 2.77  77 2.78  76 2.79 181 2.81  88 2.83  87 2.87
                            48 2.87
  90  0.417  0.668  0.341-  89 2.75 187 2.78  83 2.79  95 2.79 169 2.80 182 2.81  94 2.82 181 2.82
                            78 2.83
  91  0.998  0.753  0.341-  86 2.77 192 2.78  87 2.78 191 2.78  79 2.79 179 2.80  92 2.82  75 2.83
                           186 2.84
  92  0.082  0.836  0.341-  87 2.73  37 2.77  81 2.79  93 2.79 192 2.79  79 2.81  94 2.82  91 2.82
                            80 2.83
  93  0.167  0.918  0.342-  94 2.78  40 2.78  38 2.79  92 2.79  26 2.80  37 2.80  81 2.81  95 2.81
                            82 2.82
  94  0.250  0.753  0.341-  89 2.77  87 2.78  93 2.78  95 2.78  82 2.79  92 2.82  80 2.82  90 2.82
                            78 2.83
  95  0.334  0.834  0.342-  94 2.78  96 2.78  40 2.79  90 2.79  84 2.81 187 2.81  93 2.81  82 2.81
                            83 2.81
  96  0.417  0.916  0.342-  41 2.78  95 2.78 187 2.79 133 2.79 175 2.81 188 2.81  84 2.81  40 2.82
                            29 2.82
  97  0.500  0.000  0.000-   5 2.81  60 2.81  98 2.81 153 2.81 152 2.81   6 2.81  18 2.81 164 2.81
                           109 2.81
  98  0.583  0.083  0.000-   6 2.81  97 2.81 153 2.81 103 2.81 109 2.81 110 2.81 111 2.81 100 2.81
                            99 2.81
  99  0.667  0.167  0.000- 106 2.81 101 2.81 113 2.81 104 2.81 100 2.81 115 2.81 111 2.81 103 2.81
                            98 2.81
 100  0.750  0.000  0.000- 101 2.81 156 2.81 112 2.81 155 2.81  99 2.81 111 2.81 167 2.81 153 2.81
                            98 2.81
 101  0.833  0.083  0.000-  99 2.81   1 2.81 100 2.81 102 2.81 156 2.81 106 2.81 114 2.81 112 2.81
                           113 2.81
 102  0.917  0.167  0.000-   2 2.81   7 2.81 101 2.81 106 2.81 107 2.81   1 2.81 118 2.81 114 2.81
                            14 2.81
 103  0.500  0.250  0.000-   6 2.81  11 2.81  12 2.81  98 2.81  24 2.81 110 2.81 115 2.81 104 2.81
                            99 2.81
 104  0.583  0.333  0.000- 145 2.81 106 2.81 105 2.81 117 2.81  99 2.81 115 2.81 116 2.81  12 2.81
                           103 2.81
 105  0.667  0.417  0.000- 146 2.81 145 2.81 148 2.81 107 2.81 104 2.81 157 2.81 106 2.81 119 2.81
                           117 2.81
 106  0.750  0.250  0.000-  99 2.81 104 2.81 107 2.81 102 2.81 105 2.81 101 2.81 118 2.81 117 2.81
                           113 2.81
 107  0.833  0.333  0.000- 148 2.81 105 2.81 106 2.81 108 2.81   7 2.81 102 2.81 118 2.81 119 2.81
                           120 2.81
 108  0.917  0.417  0.000- 149 2.81 148 2.81 160 2.81 107 2.81   7 2.81  49 2.81 120 2.81  20 2.81
                             8 2.81
 109  0.583  0.000  0.115- 121 2.74 177 2.78 122 2.78 111 2.81 164 2.81 167 2.81  18 2.81 110 2.81
                           165 2.81  98 2.81 153 2.81  97 2.81
 110  0.500  0.167  0.115- 123 2.75 121 2.76  35 2.80 111 2.81  22 2.81 115 2.81  18 2.81  24 2.81
                           109 2.81 103 2.81  98 2.81   6 2.81
 111  0.667  0.083  0.115- 123 2.74 124 2.77 122 2.78 110 2.81 112 2.81 109 2.81 113 2.81 167 2.81
                           115 2.81  98 2.81 100 2.81  99 2.81
 112  0.833  0.000  0.115- 124 2.76 180 2.77 125 2.78 167 2.81 111 2.81 100 2.81 168 2.81 113 2.81
                           156 2.81 101 2.81  68 2.81 114 2.81
 113  0.750  0.167  0.115- 128 2.76 126 2.77 124 2.77 115 2.81 111 2.81  99 2.81 117 2.81 112 2.81
                           106 2.81 101 2.81 114 2.81 118 2.81
 114  0.917  0.083  0.115- 126 2.77 125 2.77  25 2.78  13 2.81  14 2.81  68 2.81 118 2.81   1 2.81
                           102 2.81 101 2.81 113 2.81 112 2.81
 115  0.583  0.250  0.115- 123 2.76 128 2.76 113 2.81 117 2.81  24 2.81 110 2.81 116 2.81 111 2.81
                           103 2.81 104 2.81  99 2.81 127 2.82
 116  0.500  0.417  0.115- 129 2.77  77 2.79 127 2.79  66 2.81  64 2.81 157 2.81  24 2.81 117 2.81
                           145 2.81 115 2.81  12 2.81 104 2.81
 117  0.667  0.333  0.115- 129 2.76 128 2.77 130 2.77 157 2.81 115 2.81 116 2.81 104 2.81 113 2.81
                           106 2.81 105 2.81 118 2.81 119 2.81
 118  0.833  0.250  0.115- 131 2.77 130 2.77 126 2.78 120 2.81  14 2.81 114 2.81 119 2.81 107 2.81
                           102 2.81 106 2.81 117 2.81 113 2.81
 119  0.750  0.417  0.115- 170 2.77 130 2.78 132 2.78 159 2.81 160 2.81 148 2.81 120 2.81 118 2.81
                           157 2.81 107 2.81 105 2.81 117 2.81
 120  0.917  0.333  0.115-  31 2.77 132 2.77 131 2.77 160 2.81 118 2.81  19 2.81 119 2.81  20 2.81
                            14 2.81   7 2.81 108 2.81 107 2.81
 121  0.502  0.082  0.226- 109 2.74  42 2.75 110 2.76  18 2.77 123 2.80 177 2.80  29 2.81 122 2.81
                            30 2.82 134 2.82 133 2.84  35 2.84
 122  0.668  0.999  0.227- 167 2.76 111 2.78 109 2.78 134 2.78 180 2.79 178 2.80 124 2.80 121 2.81
                           177 2.81 123 2.81 136 2.81 189 2.82
 123  0.584  0.166  0.226- 139 2.73 111 2.74 110 2.75 115 2.76 121 2.80 128 2.80 122 2.81 124 2.81
                            35 2.83 135 2.83 134 2.84 127 2.84
 124  0.751  0.082  0.227- 112 2.76 113 2.77 111 2.77 135 2.79 180 2.80 125 2.80 126 2.80 122 2.80
                           137 2.81 123 2.81 128 2.81 136 2.82
 125  0.917  1.000  0.227-  68 2.77 114 2.77 112 2.78  79 2.79 124 2.80  81 2.80 126 2.80  25 2.80
                            37 2.81 180 2.81 137 2.81 192 2.81
 126  0.834  0.166  0.227- 114 2.77 113 2.77 118 2.78  25 2.80 125 2.80 124 2.80 142 2.80 137 2.80
                           131 2.81 130 2.81 128 2.81 138 2.81
 127  0.498  0.335  0.229-  77 2.76 139 2.78  24 2.79 140 2.79 116 2.79  36 2.79  35 2.81 129 2.81
                           115 2.82 128 2.83 123 2.84  48 2.87
 128  0.667  0.250  0.227- 115 2.76 113 2.76 117 2.77 140 2.79 135 2.80 123 2.80 129 2.81 126 2.81
                           130 2.81 124 2.81 142 2.82 127 2.83
 129  0.584  0.416  0.227- 117 2.76 157 2.77 116 2.77 181 2.78 140 2.80 130 2.80 170 2.80 128 2.81
                           127 2.81 141 2.81 169 2.82  77 2.82
 130  0.750  0.333  0.227- 118 2.77 117 2.77 119 2.78 131 2.80 142 2.80 129 2.80 141 2.80 132 2.81
                           126 2.81 170 2.81 128 2.81 143 2.81
 131  0.916  0.250  0.227- 118 2.77 120 2.77  14 2.78 130 2.80 132 2.80  27 2.80  25 2.80 126 2.81
                           138 2.81 143 2.81  43 2.81  31 2.82
 132  0.834  0.416  0.227- 120 2.77 119 2.78 160 2.78 131 2.80 172 2.80 184 2.80  31 2.80 130 2.81
                           144 2.81 173 2.81 170 2.81 143 2.81
 133  0.502  0.997  0.342-  42 2.73 188 2.77 177 2.79  96 2.79 189 2.79  29 2.81 134 2.82  41 2.82
                           121 2.84
 134  0.586  0.080  0.341- 139 2.77 189 2.77 136 2.78  42 2.78 122 2.78 133 2.82 121 2.82 135 2.83
                           123 2.84
 135  0.669  0.165  0.341- 139 2.73 137 2.78 124 2.79 136 2.80 142 2.80 128 2.80 140 2.82 134 2.83
                           123 2.83
 136  0.751  0.999  0.342- 134 2.78 192 2.78 191 2.79 135 2.80 180 2.81 137 2.81 122 2.81 189 2.81
                           124 2.82
 137  0.834  0.083  0.342- 135 2.78 192 2.79  37 2.80 142 2.80 126 2.80 138 2.80 125 2.81 136 2.81
                           124 2.81
 138  0.917  0.167  0.342- 142 2.79  43 2.80 143 2.80  38 2.80  37 2.80 137 2.80 131 2.81  25 2.81
                           126 2.81
 139  0.507  0.244  0.339- 123 2.73 135 2.73 134 2.77 127 2.78  47 2.80  35 2.80 140 2.80  42 2.87
                            48 2.94
 140  0.585  0.333  0.341- 127 2.79 128 2.79 141 2.80 142 2.80 129 2.80 139 2.80 135 2.82 181 2.82
                            48 2.87
 141  0.667  0.416  0.342- 181 2.79 140 2.80 184 2.80 143 2.80 130 2.80 182 2.80 142 2.81 170 2.81
                           129 2.81
 142  0.751  0.250  0.341- 138 2.79 140 2.80 143 2.80 130 2.80 135 2.80 126 2.80 137 2.80 141 2.81
                           128 2.82
 143  0.833  0.333  0.342- 184 2.79  43 2.80 142 2.80 138 2.80 141 2.80 144 2.80 131 2.81 132 2.81
                           130 2.81
 144  0.917  0.416  0.342-  44 2.80 185 2.80  43 2.80 184 2.80 143 2.80  85 2.80 132 2.81 173 2.81
                            31 2.82
 145  0.500  0.500  0.000- 104 2.81 105 2.81 146 2.81 157 2.81 116 2.81  54 2.81  12 2.81  66 2.81
                            53 2.81
 146  0.583  0.583  0.000- 105 2.81  54 2.81 145 2.81 148 2.81 147 2.81 151 2.81 159 2.81 157 2.81
                           158 2.81
 147  0.667  0.667  0.000- 154 2.81 149 2.81 151 2.81 146 2.81 152 2.81 148 2.81 163 2.81 159 2.81
                           161 2.81
 148  0.750  0.500  0.000- 107 2.81 105 2.81 108 2.81 119 2.81 146 2.81 149 2.81 147 2.81 159 2.81
                           160 2.81
 149  0.833  0.583  0.000- 108 2.81 147 2.81 148 2.81 154 2.81 160 2.81 161 2.81 162 2.81  49 2.81
                           150 2.81
 150  0.917  0.667  0.000-  55 2.81  50 2.81  62 2.81 155 2.81  49 2.81 166 2.81 162 2.81 154 2.81
                           149 2.81
 151  0.500  0.750  0.000-  54 2.81  59 2.81 152 2.81 147 2.81  60 2.81 146 2.81 163 2.81 158 2.81
                            72 2.81
 152  0.583  0.833  0.000-  60 2.81 151 2.81 154 2.81 153 2.81 147 2.81  97 2.81 163 2.81 164 2.81
                           165 2.81
 153  0.667  0.917  0.000-  97 2.81 152 2.81  98 2.81 154 2.81 109 2.81 165 2.81 167 2.81 155 2.81
                           100 2.81
 154  0.750  0.750  0.000- 147 2.81 152 2.81 149 2.81 153 2.81 161 2.81 165 2.81 166 2.81 155 2.81
                           150 2.81
 155  0.833  0.833  0.000-  55 2.81 156 2.81 168 2.81 150 2.81 100 2.81 166 2.81 167 2.81 153 2.81
                           154 2.81
 156  0.917  0.917  0.000-  56 2.81   1 2.81 100 2.81 155 2.81 101 2.81  55 2.81  68 2.81 112 2.81
                           168 2.81
 157  0.583  0.500  0.115- 169 2.76 129 2.77 170 2.77 117 2.81 116 2.81  66 2.81 145 2.81 105 2.81
                           158 2.81 119 2.81 146 2.81 159 2.81
 158  0.500  0.667  0.115- 169 2.76 171 2.76  83 2.77  70 2.81  66 2.81  54 2.81  72 2.81 157 2.81
                           151 2.81 146 2.81 159 2.81 163 2.81
 159  0.667  0.583  0.115- 172 2.76 170 2.77 171 2.77 119 2.81 160 2.81 161 2.81 163 2.81 148 2.81
                           147 2.81 146 2.81 158 2.81 157 2.81
 160  0.833  0.500  0.115- 172 2.76 173 2.77 132 2.78 120 2.81 119 2.81  20 2.81 108 2.81 159 2.81
                           162 2.81 161 2.81 149 2.81 148 2.81
 161  0.750  0.667  0.115- 174 2.76 176 2.77 172 2.77 162 2.81 166 2.81 163 2.81 159 2.81 165 2.81
                           160 2.81 154 2.81 149 2.81 147 2.81
 162  0.917  0.583  0.115-  73 2.76 174 2.76 173 2.77  20 2.81 161 2.81 160 2.81  61 2.81  62 2.81
                           166 2.81 149 2.81  49 2.81 150 2.81
 163  0.583  0.750  0.115- 176 2.76 171 2.77 175 2.77 165 2.81 161 2.81 159 2.81 164 2.81 152 2.81
                           147 2.81 151 2.81 158 2.81  72 2.81
 164  0.500  0.917  0.115-  29 2.76 175 2.77 177 2.78 109 2.81 165 2.81  18 2.81 163 2.81  97 2.81
                           152 2.81  60 2.81  72 2.81  16 2.81
 165  0.667  0.833  0.115- 177 2.76 176 2.77 178 2.77 167 2.81 163 2.81 166 2.81 164 2.81 161 2.81
                           109 2.81 154 2.81 153 2.81 152 2.81
 166  0.833  0.750  0.115- 178 2.76 179 2.77 174 2.77 168 2.81  62 2.81 161 2.81 165 2.81 162 2.81
                           167 2.81 154 2.81 155 2.81 150 2.81
 167  0.750  0.917  0.115- 122 2.76 178 2.77 180 2.78 165 2.81 109 2.81 112 2.81 168 2.81 111 2.81
                           166 2.81 153 2.81 100 2.81 155 2.81
 168  0.917  0.833  0.115- 180 2.77 179 2.77  79 2.78 166 2.81 167 2.81 155 2.81  62 2.81 112 2.81
                            55 2.81 156 2.81  67 2.81  68 2.81
 169  0.499  0.584  0.226-  66 2.76 158 2.76 157 2.76 181 2.78 171 2.80  90 2.80  78 2.81 170 2.82
                            83 2.82 129 2.82 182 2.82  77 2.83
 170  0.667  0.500  0.227- 119 2.77 157 2.77 159 2.77 172 2.80 182 2.80 129 2.80 141 2.81 130 2.81
                           132 2.81 184 2.81 171 2.81 169 2.82
 171  0.583  0.667  0.227- 158 2.76 163 2.77 159 2.77 176 2.80  83 2.80 183 2.80 175 2.80 182 2.80
                           169 2.80 187 2.80 170 2.81 172 2.81
 172  0.750  0.583  0.227- 160 2.76 159 2.76 161 2.77 183 2.80 170 2.80 132 2.80 174 2.80 185 2.81
                           176 2.81 171 2.81 184 2.82 173 2.82
 173  0.918  0.499  0.227-  20 2.75 162 2.77 160 2.77  31 2.78  73 2.80  85 2.80 132 2.81 185 2.81
                           174 2.81 144 2.81 172 2.82  33 2.85
 174  0.833  0.666  0.227- 161 2.76 162 2.76 166 2.77 186 2.80 190 2.80 172 2.80 185 2.80 176 2.80
                            73 2.81 178 2.81 173 2.81 179 2.82
 175  0.500  0.833  0.227- 164 2.77 163 2.77  72 2.78  29 2.79 176 2.80 177 2.80  83 2.80 171 2.80
                            96 2.81 187 2.81  84 2.81 188 2.81
 176  0.667  0.750  0.227- 163 2.76 161 2.77 165 2.77 190 2.79 177 2.80 175 2.80 171 2.80 183 2.80
                           174 2.80 172 2.81 178 2.81 188 2.82
 177  0.585  0.916  0.227- 165 2.76 109 2.78 164 2.78 133 2.79 176 2.80 178 2.80 121 2.80 175 2.80
                           122 2.81 189 2.81  29 2.81 188 2.82
 178  0.751  0.833  0.227- 166 2.76 167 2.77 165 2.77 179 2.79 177 2.80 122 2.80 190 2.80 191 2.81
                           189 2.81 174 2.81 180 2.81 176 2.81
 179  0.917  0.750  0.227- 166 2.77  62 2.77 168 2.77 178 2.79  75 2.80 180 2.80 186 2.80  91 2.80
                            73 2.81 191 2.81 174 2.82  79 2.82
 180  0.834  0.916  0.227- 168 2.77 112 2.77 167 2.78 122 2.79  79 2.80 124 2.80 179 2.80 191 2.80
                           125 2.81 136 2.81 192 2.81 178 2.81
 181  0.501  0.500  0.339- 169 2.78  77 2.78 129 2.78 182 2.79 141 2.79  89 2.81 140 2.82  90 2.82
                            48 2.85
 182  0.584  0.583  0.341- 183 2.79 181 2.79 170 2.80 184 2.80 171 2.80 141 2.80  90 2.81 187 2.81
                           169 2.82
 183  0.667  0.665  0.341- 182 2.79 172 2.80 184 2.80 185 2.80 171 2.80 190 2.80 176 2.80 187 2.81
                           188 2.81
 184  0.750  0.499  0.342- 143 2.79 183 2.80 141 2.80 185 2.80 182 2.80 144 2.80 132 2.80 170 2.81
                           172 2.82
 185  0.834  0.582  0.341- 144 2.80 183 2.80 184 2.80 186 2.80  85 2.80 174 2.80 172 2.81 173 2.81
                           190 2.81
 186  0.915  0.667  0.341-  86 2.74 190 2.78 174 2.80 191 2.80 185 2.80 179 2.80  85 2.82  73 2.83
                            91 2.84
 187  0.500  0.750  0.342-  90 2.78  96 2.79 188 2.79 171 2.80 175 2.81 182 2.81 183 2.81  95 2.81
                            83 2.81
 188  0.584  0.832  0.342- 133 2.77 190 2.79 187 2.79  96 2.81 189 2.81 183 2.81 175 2.81 176 2.82
                           177 2.82
 189  0.668  0.915  0.342- 134 2.77 191 2.78 190 2.79 133 2.79 178 2.81 188 2.81 177 2.81 136 2.81
                           122 2.82
 190  0.750  0.749  0.341- 186 2.78 189 2.79 188 2.79 176 2.79 178 2.80 174 2.80 183 2.80 185 2.81
                           191 2.82
 191  0.833  0.833  0.342-  91 2.78 189 2.78 136 2.79 186 2.80 180 2.80 178 2.81 179 2.81 192 2.81
                           190 2.82
 192  0.916  0.917  0.342-  91 2.78 136 2.78 137 2.79  92 2.79  37 2.81 125 2.81 180 2.81 191 2.81
                            79 2.82
 193  0.902  0.742  0.553- 215 1.10
 194  0.835  0.846  0.535- 215 1.09
 195  0.880  0.775  0.468- 215 1.10
 196  0.431  0.616  0.468- 224 1.11
 197  0.424  0.621  0.557- 224 1.10
 198  0.514  0.473  0.565- 225 1.10
 199  0.539  0.469  0.478- 225 1.10
 200  0.644  0.822  0.515- 218 1.09
 201  0.524  0.806  0.518- 222 1.09
 202  0.794  0.569  0.495- 219 1.09
 203  0.675  0.553  0.499- 220 1.09
 204  0.287  0.546  0.467- 228 1.09
 205  0.424  0.293  0.466- 229 1.09
 206  0.301  0.285  0.466- 230 1.09
 207  0.164  0.538  0.468- 232 1.09
 208  0.057  0.351  0.480- 234 1.11
 209  0.082  0.350  0.567- 234 1.10
 210  0.182  0.205  0.559- 235 1.10
 211  0.167  0.208  0.471- 235 1.11
 212  0.038  0.239  0.577- 236 1.10
 213  0.094  0.149  0.531- 236 1.10
 214  0.027  0.238  0.488- 236 1.10
 215  0.856  0.785  0.519- 194 1.09 193 1.10 195 1.10 237 1.45
 216  0.801  0.702  0.504- 240 1.23 237 1.35 217 1.49
 217  0.727  0.696  0.506- 219 1.41 218 1.41 216 1.49
 218  0.651  0.764  0.512- 200 1.09 222 1.39 217 1.41
 219  0.735  0.621  0.501- 202 1.09 220 1.40 217 1.41
 220  0.668  0.611  0.503- 203 1.09 219 1.40 221 1.41
 221  0.592  0.678  0.510- 222 1.41 220 1.41 223 1.49
 222  0.584  0.754  0.514- 201 1.09 218 1.39 221 1.41
 223  0.518  0.673  0.513- 241 1.22 238 1.37 221 1.49
 224  0.464  0.589  0.514- 197 1.10 196 1.11 238 1.44 225 1.52
 225  0.492  0.501  0.515- 198 1.10 199 1.10 239 1.45 224 1.52
 226  0.437  0.419  0.485- 242 1.22 239 1.36 227 1.51
 227  0.370  0.420  0.447- 229 1.48 228 1.48 226 1.51  48 2.19
 228  0.290  0.492  0.449- 204 1.09 232 1.44 227 1.48  88 2.17
 229  0.370  0.344  0.448- 205 1.09 230 1.44 227 1.48  47 2.21
 230  0.298  0.340  0.448- 206 1.09 229 1.44 231 1.48  47 2.16
 231  0.218  0.412  0.448- 232 1.48 230 1.48 233 1.52  45 2.19
 232  0.218  0.488  0.449- 207 1.09 228 1.44 231 1.48  88 2.19
 233  0.153  0.410  0.488- 243 1.22 244 1.35 231 1.52
 234  0.105  0.322  0.518- 209 1.10 208 1.11 244 1.46 235 1.52
 235  0.137  0.233  0.519- 210 1.10 211 1.11 234 1.52 236 1.53
 236  0.070  0.214  0.530- 213 1.10 212 1.10 214 1.10 235 1.53
 237  0.787  0.775  0.521- 216 1.35 215 1.45
 238  0.534  0.597  0.517- 223 1.37 224 1.44
 239  0.423  0.495  0.496- 226 1.36 225 1.45
 240  0.867  0.646  0.490- 216 1.23
 241  0.451  0.730  0.511- 223 1.22
 242  0.497  0.359  0.504- 226 1.22
 243  0.093  0.468  0.507- 233 1.22
 244  0.170  0.334  0.497- 233 1.35 234 1.46
 
  LATTYP: Found a hexagonal cell.
 ALAT       =    19.4393438986
 C/A-ratio  =     1.0288413078
  
  Lattice vectors:
  
 A1 = (   9.7196719493, -16.8349656491,   0.0000000000)
 A2 = ( -19.4393438986,   0.0000000000,   0.0000000000)
 A3 = (   0.0000000000,   0.0000000000, -20.0000000000)


Analysis of symmetry for initial positions (statically):
=====================================================================
 Subroutine PRICEL returns:
 Original cell was already a primitive cell.
 

 Routine SETGRP: Setting up the symmetry group for a 
 hexagonal supercell.


 Subroutine GETGRP returns: Found  1 space group operations
 (whereof  1 operations were pure point group operations)
 out of a pool of 24 trial point group operations.


The static configuration has the point symmetry C_1 .


Analysis of symmetry for dynamics (positions and initial velocities):
=====================================================================
 Subroutine PRICEL returns:
 Original cell was already a primitive cell.
 

 Routine SETGRP: Setting up the symmetry group for a 
 hexagonal supercell.


 Subroutine GETGRP returns: Found  1 space group operations
 (whereof  1 operations were pure point group operations)
 out of a pool of 24 trial point group operations.


The dynamic configuration has the point symmetry C_1 .


Analysis of constrained symmetry for selective dynamics:
=====================================================================
 Subroutine PRICEL returns:
 Original cell was already a primitive cell.
 

 Routine SETGRP: Setting up the symmetry group for a 
 hexagonal supercell.


 Subroutine GETGRP returns: Found  1 space group operations
 (whereof  1 operations were pure point group operations)
 out of a pool of 24 trial point group operations.


The constrained configuration has the point symmetry C_1 .


 Subroutine INISYM returns: Found  1 space group operations
 (whereof  1 operations are pure point group operations),
 and found     1 'primitive' translations

 
 
 KPOINTS: K-POINTS                                

Automatic generation of k-mesh.
Space group operators:
 irot       det(A)        alpha          n_x          n_y          n_z        tau_x        tau_y        tau_z
    1     1.000000     0.000000     1.000000     0.000000     0.000000     0.000000     0.000000     0.000000
 
 Subroutine IBZKPT returns following result:
 ===========================================
 
 Found      5 irreducible k-points:
 
 Following reciprocal coordinates:
            Coordinates               Weight
  0.000000  0.000000  0.000000      1.000000
  0.333333 -0.000000  0.000000      2.000000
  0.000000  0.333333  0.000000      2.000000
  0.333333  0.333333  0.000000      2.000000
 -0.333333  0.333333  0.000000      2.000000
 
 Following cartesian coordinates:
            Coordinates               Weight
  0.000000  0.000000  0.000000      1.000000
  0.017147 -0.009900  0.000000      2.000000
  0.000000  0.019800  0.000000      2.000000
  0.017147  0.009900  0.000000      2.000000
 -0.017147  0.029700  0.000000      2.000000
 


--------------------------------------------------------------------------------------------------------




 Dimension of arrays:
   k-points           NKPTS =      5   k-points in BZ     NKDIM =      5   number of bands    NBANDS=   1248
   number of dos      NEDOS =    301   number of ions     NIONS =    244
   non local maximal  LDIM  =      6   non local SUM 2l+1 LMDIM =     18
   total plane-waves  NPLWV = ******
   max r-space proj   IRMAX =   2584   max aug-charges    IRDMAX=  11855
   dimension x,y,z NGX =   108 NGY =  108 NGZ =  108
   dimension x,y,z NGXF=   216 NGYF=  216 NGZF=  216
   support grid    NGXF=   216 NGYF=  216 NGZF=  216
   ions per type =             192  22  22   8
   NGX,Y,Z   is equivalent  to a cutoff of   9.24,  9.24,  8.98 a.u.
   NGXF,Y,Z  is equivalent  to a cutoff of  18.47, 18.47, 17.95 a.u.

 SYSTEM =  x                                       
 POSCAR =  Pt  H  C  O                             

 Startparameter for this run:
   NWRITE =      0    write-flag & timer
   PREC   = normal    normal or accurate (medium, high low for compatibility)
   ISTART =      0    job   : 0-new  1-cont  2-samecut
   ICHARG =      2    charge: 1-file 2-atom 10-const
   ISPIN  =      1    spin polarized calculation?
   LNONCOLLINEAR =      F non collinear calculations
   LSORBIT =      F    spin-orbit coupling
   INIWAV =      1    electr: 0-lowe 1-rand  2-diag
   LASPH  =      F    aspherical Exc in radial PAW
   METAGGA=      F    non-selfconsistent MetaGGA calc.

 Electronic Relaxation 1
   ENCUT  =  450.0 eV  33.07 Ry    5.75 a.u.  33.62 33.62 34.59*2*pi/ulx,y,z
   ENINI  =  450.0     initial cutoff
   ENAUG  =  644.9 eV  augmentation charge cutoff
   NELM   =     50;   NELMIN=  5; NELMDL= -7     # of ELM steps 
   EDIFF  = 0.1E-04   stopping-criterion for ELM
   LREAL  =      T    real-space projection
   NLSPLINE    = F    spline interpolate recip. space projectors
   LCOMPAT=      F    compatible to vasp.4.4
   GGA_COMPAT  = T    GGA compatible to vasp.4.4-vasp.4.6
   LMAXPAW     = -100 max onsite density
   LMAXMIX     =    2 max onsite mixed and CHGCAR
   VOSKOWN=      0    Vosko Wilk Nusair interpolation
   ROPT   =   -0.00050  -0.00050  -0.00050  -0.00050
 Ionic relaxation
   EDIFFG = -.3E-01   stopping-criterion for IOM
   NSW    =    400    number of steps for IOM
   NBLOCK =      1;   KBLOCK =    400    inner block; outer block 
   IBRION =      2    ionic relax: 0-MD 1-quasi-New 2-CG
   NFREE  =      2    steps in history (QN), initial steepest desc. (CG)
   ISIF   =      2    stress and relaxation
   IWAVPR =     11    prediction:  0-non 1-charg 2-wave 3-comb
   ISYM   =      2    0-nonsym 1-usesym 2-fastsym
   LCORR  =      T    Harris-Foulkes like correction to forces

   POTIM  = 0.1500    time-step for ionic-motion
   TEIN   =    0.0    initial temperature
   TEBEG  =    0.0;   TEEND  =   0.0 temperature during run
   SMASS  =  -3.00    Nose mass-parameter (am)
   estimated Nose-frequenzy (Omega)   =  0.10E-29 period in steps =****** mass=  -0.864E-26a.u.
   SCALEE = 1.0000    scale energy and forces
   NPACO  =    256;   APACO  = 16.0  distance and # of slots for P.C.
   PSTRESS=    0.0 pullay stress

  Mass of Ions in am
   POMASS = 195.08  1.00 12.01 16.00
  Ionic Valenz
   ZVAL   =  10.00  1.00  4.00  6.00
  Atomic Wigner-Seitz radii
   RWIGS  =  -1.00 -1.00 -1.00 -1.00
  virtual crystal weights 
   VCA    =   1.00  1.00  1.00  1.00
   NELECT =    2078.0000    total number of electrons
   NUPDOWN=      -1.0000    fix difference up-down

 DOS related values:
   EMIN   =  10.00;   EMAX   =-10.00  energy-range for DOS
   EFERMI =   0.00
   ISMEAR =     0;   SIGMA  =   0.03  broadening in eV -4-tet -1-fermi 0-gaus

 Electronic relaxation 2 (details)
   IALGO  =     68    algorithm
   LDIAG  =      T    sub-space diagonalisation (order eigenvalues)
   LSUBROT=      F    optimize rotation matrix (better conditioning)
   TURBO    =      0    0=normal 1=particle mesh
   IRESTART =      0    0=no restart 2=restart with 2 vectors
   NREBOOT  =      0    no. of reboots
   NMIN     =      0    reboot dimension
   EREF     =   0.00    reference energy to select bands
   IMIX   =      4    mixing-type and parameters
     AMIX     =   0.40;   BMIX     =  1.00
     AMIX_MAG =   1.60;   BMIX_MAG =  1.00
     AMIN     =   0.10
     WC   =   100.;   INIMIX=   1;  MIXPRE=   1;  MAXMIX= -45

 Intra band minimization:
   WEIMIN = 0.0010     energy-eigenvalue tresh-hold
   EBREAK =  0.20E-08  absolut break condition
   DEPER  =   0.30     relativ break condition  

   TIME   =   0.40     timestep for ELM

  volume/ion in A,a.u.               =      26.82       181.02
  Fermi-wavevector in a.u.,A,eV,Ry     =   1.116817  2.110478 16.970282  1.247281
  Thomas-Fermi vector in A             =   2.253434
 
 Write flags
   LWAVE        =      F    write WAVECAR
   LDOWNSAMPLE  =      F    k-point downsampling of WAVECAR
   LCHARG       =      F    write CHGCAR
   LVTOT        =      F    write LOCPOT, total local potential
   LVHAR        =      F    write LOCPOT, Hartree potential only
   LELF         =      F    write electronic localiz. function (ELF)
   LORBIT       =      0    0 simple, 1 ext, 2 COOP (PROOUT), +10 PAW based schemes


 Dipole corrections
   LMONO  =      F    monopole corrections only (constant potential shift)
   LDIPOL =      T    correct potential (dipole corrections)
   IDIPOL =      3    1-x, 2-y, 3-z, 4-all directions 
   EPSILON=  1.0000000 bulk dielectric constant

 Exchange correlation treatment:
   GGA     =    PE    GGA type
   LEXCH   =     8    internal setting for exchange type
   VOSKOWN=      0    Vosko Wilk Nusair interpolation
   LHFCALC =     F    Hartree Fock is set to
   LHFONE  =     F    Hartree Fock one center treatment
   AEXX    =    0.0000 exact exchange contribution

 Linear response parameters
   LEPSILON=     F    determine dielectric tensor
   LRPA    =     F    only Hartree local field effects (RPA)
   LNABLA  =     F    use nabla operator in PAW spheres
   LVEL    =     F    velocity operator in full k-point grid
   LINTERFAST=   F  fast interpolation
   KINTER  =     0    interpolate to denser k-point grid
   CSHIFT  =0.1000    complex shift for real part using Kramers Kronig
   OMEGAMAX=  -1.0    maximum frequency
   DEG_THRESHOLD= 0.2000000E-02 threshold for treating states as degnerate
   RTIME   =   -0.100 relaxation time in fs
  (WPLASMAI=    0.000 imaginary part of plasma frequency in eV, 0.658/RTIME)
   DFIELD  = 0.0000000 0.0000000 0.0000000 field for delta impulse in time
 
 Orbital magnetization related:
   ORBITALMAG=     F  switch on orbital magnetization
   LCHIMAG   =     F  perturbation theory with respect to B field
   DQ        =  0.001000  dq finite difference perturbation B field
   LLRAUG    =     F  two centre corrections for induced B field



--------------------------------------------------------------------------------------------------------


 conjugate gradient relaxation of ions
   using selective dynamics as specified on POSCAR
 charge density and potential will be updated during run
 non-spin polarized calculation
 RMM-DIIS sequential band-by-band and
  variant of blocked Davidson during initial phase
 perform sub-space diagonalisation
    before iterative eigenvector-optimisation
 modified Broyden-mixing scheme, WC =      100.0
 initial mixing is a Kerker type mixing with AMIX =  0.4000 and BMIX =      1.0000
 Hartree-type preconditioning will be used
 using additional bands          209
 real space projection scheme for non local part
 use partial core corrections
 calculate Harris-corrections to forces 
   (improved forces if not selfconsistent)
 use gradient corrections 
 use of overlap-Matrix (Vanderbilt PP)
 Gauss-broadening in eV      SIGMA  =   0.03


--------------------------------------------------------------------------------------------------------


  energy-cutoff  :      450.00
  volume of cell :     6545.21
      direct lattice vectors                 reciprocal lattice vectors
    19.439343899  0.000000000  0.000000000     0.051442065 -0.029700090  0.000000000
     9.719671949 16.834965649  0.000000000     0.000000000  0.059400181  0.000000000
     0.000000000  0.000000000 20.000000000     0.000000000  0.000000000  0.050000000

  length of vectors
    19.439343899 19.439343899 20.000000000     0.059400181  0.059400181  0.050000000


 
 k-points in units of 2pi/SCALE and weight: K-POINTS                                
   0.00000000  0.00000000  0.00000000       0.111
   0.01714736 -0.00990003  0.00000000       0.222
   0.00000000  0.01980006  0.00000000       0.222
   0.01714736  0.00990003  0.00000000       0.222
  -0.01714736  0.02970009  0.00000000       0.222
 
 k-points in reciprocal lattice and weights: K-POINTS                                
   0.00000000  0.00000000  0.00000000       0.111
   0.33333333 -0.00000000  0.00000000       0.222
   0.00000000  0.33333333  0.00000000       0.222
   0.33333333  0.33333333  0.00000000       0.222
  -0.33333333  0.33333333  0.00000000       0.222
 
 position of ions in fractional coordinates (direct lattice) 
   0.00000000  0.00000000  0.00000000
   0.08333333  0.08333333  0.00000000
   0.16666667  0.16666667  0.00000000
   0.25000000  0.00000000  0.00000000
   0.33333333  0.08333333  0.00000000
   0.41666667  0.16666667  0.00000000
   1.00000000  0.25000000  0.00000000
   0.08333333  0.33333333  0.00000000
   0.16666667  0.41666667  0.00000000
   0.25000000  0.25000000  0.00000000
   0.33333333  0.33333333  0.00000000
   0.41666667  0.41666667  0.00000000
   0.08333333  0.00000000  0.11454743
   0.00000000  0.16666667  0.11454743
   0.16666667  0.08333333  0.11454743
   0.33333333  0.00000000  0.11454743
   0.25000000  0.16666667  0.11454743
   0.41666667  0.08333333  0.11454743
   0.08333333  0.25000000  0.11454743
   1.00000000  0.41666667  0.11454743
   0.16666667  0.33333333  0.11454743
   0.33333333  0.25000000  0.11454743
   0.25000000  0.41666667  0.11454743
   0.41666667  0.33333333  0.11454743
   0.99978119  0.08381514  0.22719310
   0.16651125  0.00085219  0.22716644
   0.08251119  0.16729547  0.22700252
   0.24992484  0.08324358  0.22692489
   0.41756628  0.99926339  0.22690480
   0.33400818  0.16552084  0.22637524
   0.00021143  0.33365615  0.22654483
   0.16653672  0.25005239  0.22609019
   0.08704550  0.41660199  0.22946508
   0.25169640  0.33305273  0.22955178
   0.41576366  0.25052506  0.22814350
   0.33233922  0.41665887  0.23037409
   0.00003888  0.00061277  0.34193356
   0.08293096  0.08379453  0.34195421
   0.16617071  0.16565560  0.34115413
   0.25006811  0.99982313  0.34213503
   0.33442256  0.08057142  0.34141722
   0.42126676  0.15891525  0.34028288
   0.99955202  0.25020253  0.34200233
   0.08289609  0.33286359  0.34044378
   0.16923070  0.41481171  0.34839073
   0.25017259  0.24493555  0.33932596
   0.34066743  0.32194929  0.34660884
   0.41425061  0.41833491  0.34661807
   0.00000000  0.50000000  0.00000000
   0.08333333  0.58333333  0.00000000
   0.16666667  0.66666667  0.00000000
   0.25000000  0.50000000  0.00000000
   0.33333333  0.58333333  0.00000000
   0.41666667  0.66666667  0.00000000
   0.00000000  0.75000000  0.00000000
   0.08333333  0.83333333  0.00000000
   0.16666667  0.91666667  0.00000000
   0.25000000  0.75000000  0.00000000
   0.33333333  0.83333333  0.00000000
   0.41666667  0.91666667  0.00000000
   0.08333333  0.50000000  0.11454743
   1.00000000  0.66666667  0.11454743
   0.16666667  0.58333333  0.11454743
   0.33333333  0.50000000  0.11454743
   0.25000000  0.66666667  0.11454743
   0.41666667  0.58333333  0.11454743
   0.08333333  0.75000000  0.11454743
   0.00000000  0.91666667  0.11454743
   0.16666667  0.83333333  0.11454743
   0.33333333  0.75000000  0.11454743
   0.25000000  0.91666667  0.11454743
   0.41666667  0.83333333  0.11454743
   0.99991681  0.58297242  0.22621315
   0.16800499  0.49971440  0.22988824
   0.08282779  0.66760022  0.22640128
   0.24930432  0.58233643  0.22863289
   0.41606356  0.49891808  0.22819433
   0.33282773  0.66736844  0.22571336
   0.00024033  0.83398062  0.22689975
   0.16680522  0.75108263  0.22608189
   0.08366174  0.91757901  0.22689027
   0.25024153  0.83443933  0.22694730
   0.41646899  0.75103785  0.22666838
   0.33356151  0.91717096  0.22727542
   0.00000459  0.49975356  0.34126543
   0.07803575  0.58800250  0.33934042
   0.16339330  0.67416264  0.34044733
   0.24328104  0.51118690  0.34759475
   0.33385787  0.58851214  0.33919634
   0.41735593  0.66806491  0.34071213
   0.99837843  0.75253100  0.34141446
   0.08246169  0.83614149  0.34147237
   0.16661724  0.91793545  0.34190294
   0.24967998  0.75284878  0.34130209
   0.33364247  0.83401961  0.34206181
   0.41732786  0.91563458  0.34219588
   0.50000000  0.00000000  0.00000000
   0.58333333  0.08333333  0.00000000
   0.66666667  0.16666667  0.00000000
   0.75000000  0.00000000  0.00000000
   0.83333333  0.08333333  0.00000000
   0.91666667  0.16666667  0.00000000
   0.50000000  0.25000000  0.00000000
   0.58333333  0.33333333  0.00000000
   0.66666667  0.41666667  0.00000000
   0.75000000  0.25000000  0.00000000
   0.83333333  0.33333333  0.00000000
   0.91666667  0.41666667  0.00000000
   0.58333333  0.00000000  0.11454743
   0.50000000  0.16666667  0.11454743
   0.66666667  0.08333333  0.11454743
   0.83333333  0.00000000  0.11454743
   0.75000000  0.16666667  0.11454743
   0.91666667  0.08333333  0.11454743
   0.58333333  0.25000000  0.11454743
   0.50000000  0.41666667  0.11454743
   0.66666667  0.33333333  0.11454743
   0.83333333  0.25000000  0.11454743
   0.75000000  0.41666667  0.11454743
   0.91666667  0.33333333  0.11454743
   0.50150821  0.08194585  0.22604198
   0.66814788  0.99885717  0.22694310
   0.58389460  0.16584103  0.22570170
   0.75098388  0.08244202  0.22679140
   0.91731225  0.99990327  0.22717050
   0.83352907  0.16626563  0.22706310
   0.49828578  0.33469235  0.22869520
   0.66664140  0.24962811  0.22652633
   0.58367891  0.41637369  0.22652076
   0.75021157  0.33309330  0.22711262
   0.91624949  0.25020454  0.22715468
   0.83361045  0.41636512  0.22717698
   0.50198064  0.99688245  0.34153121
   0.58619725  0.07995463  0.34131903
   0.66887508  0.16521552  0.34090718
   0.75110286  0.99917939  0.34208997
   0.83387929  0.08322026  0.34178287
   0.91658110  0.16707905  0.34199133
   0.50658479  0.24430725  0.33913377
   0.58463241  0.33270799  0.34073728
   0.66693905  0.41649585  0.34156986
   0.75074686  0.24972826  0.34149593
   0.83333922  0.33335403  0.34211942
   0.91681188  0.41634938  0.34187774
   0.50000000  0.50000000  0.00000000
   0.58333333  0.58333333  0.00000000
   0.66666667  0.66666667  0.00000000
   0.75000000  0.50000000  0.00000000
   0.83333333  0.58333333  0.00000000
   0.91666667  0.66666667  0.00000000
   0.50000000  0.75000000  0.00000000
   0.58333333  0.83333333  0.00000000
   0.66666667  0.91666667  0.00000000
   0.75000000  0.75000000  0.00000000
   0.83333333  0.83333333  0.00000000
   0.91666667  0.91666667  0.00000000
   0.58333333  0.50000000  0.11454743
   0.50000000  0.66666667  0.11454743
   0.66666667  0.58333333  0.11454743
   0.83333333  0.50000000  0.11454743
   0.75000000  0.66666667  0.11454743
   0.91666667  0.58333333  0.11454743
   0.58333333  0.75000000  0.11454743
   0.50000000  0.91666667  0.11454743
   0.66666667  0.83333333  0.11454743
   0.83333333  0.75000000  0.11454743
   0.75000000  0.91666667  0.11454743
   0.91666667  0.83333333  0.11454743
   0.49949889  0.58376249  0.22618400
   0.66671651  0.49993134  0.22687151
   0.58288197  0.66695423  0.22672768
   0.75007088  0.58266598  0.22651882
   0.91774212  0.49900971  0.22667637
   0.83324506  0.66589340  0.22661535
   0.50044391  0.83345008  0.22718213
   0.66664290  0.74957592  0.22672530
   0.58456051  0.91565226  0.22701718
   0.75067234  0.83272451  0.22684070
   0.91656414  0.74989222  0.22690647
   0.83415972  0.91629903  0.22715268
   0.50098293  0.50038447  0.33949620
   0.58398623  0.58310037  0.34112944
   0.66730899  0.66538561  0.34081161
   0.75036680  0.49928785  0.34174923
   0.83350576  0.58245254  0.34109213
   0.91517040  0.66716546  0.34117133
   0.50048660  0.74990078  0.34165250
   0.58402555  0.83229734  0.34230608
   0.66794551  0.91513213  0.34194103
   0.74974801  0.74944060  0.34069636
   0.83326366  0.83348800  0.34165262
   0.91646795  0.91746517  0.34215557
   0.90245381  0.74158784  0.55261387
   0.83524966  0.84594478  0.53501628
   0.88021002  0.77506932  0.46773201
   0.43091482  0.61570291  0.46751943
   0.42429071  0.62112589  0.55672344
   0.51364471  0.47315867  0.56469132
   0.53907198  0.46888440  0.47804566
   0.64412613  0.82249283  0.51539474
   0.52429762  0.80580962  0.51774007
   0.79443140  0.56939430  0.49485003
   0.67486051  0.55255162  0.49887912
   0.28699447  0.54607691  0.46698016
   0.42437074  0.29262204  0.46580765
   0.30115614  0.28536270  0.46635634
   0.16359679  0.53849151  0.46788483
   0.05697269  0.35110748  0.48047133
   0.08208997  0.35037013  0.56659649
   0.18224220  0.20523809  0.55870855
   0.16654441  0.20759894  0.47112582
   0.03773881  0.23924218  0.57684772
   0.09380475  0.14937414  0.53100494
   0.02688757  0.23816754  0.48827961
   0.85618768  0.78475822  0.51908579
   0.80061375  0.70194971  0.50435960
   0.72675176  0.69645696  0.50624138
   0.65059665  0.76359415  0.51228180
   0.73498467  0.62063925  0.50063274
   0.66826251  0.61142742  0.50296349
   0.59228169  0.67847888  0.51014377
   0.58392056  0.75449162  0.51376208
   0.51844826  0.67314721  0.51254596
   0.46352563  0.58896914  0.51445562
   0.49176527  0.50067971  0.51548405
   0.43708783  0.41949492  0.48547766
   0.36983289  0.41976378  0.44727932
   0.28995654  0.49174127  0.44883580
   0.36953340  0.34394232  0.44815342
   0.29779360  0.33991996  0.44847205
   0.21806876  0.41172234  0.44796037
   0.21815679  0.48757644  0.44933112
   0.15267333  0.40952287  0.48754064
   0.10498182  0.32157900  0.51787809
   0.13669304  0.23274889  0.51944095
   0.07001557  0.21390826  0.52980022
   0.78700495  0.77532504  0.52079946
   0.53364787  0.59665401  0.51664836
   0.42301822  0.49453081  0.49637747
   0.86653085  0.64631638  0.49010022
   0.45111588  0.73044757  0.51110883
   0.49707211  0.35943159  0.50366121
   0.09263297  0.46845692  0.50731826
   0.17006319  0.33357268  0.49735209
 
 position of ions in cartesian coordinates  (Angst):
   0.00000000  0.00000000  0.00000000
   2.42991799  1.40291380  0.00000000
   4.85983597  2.80582761  0.00000000
   4.85983597  0.00000000  0.00000000
   7.28975396  1.40291380  0.00000000
   9.71967195  2.80582761  0.00000000
  21.86926189  4.20874141  0.00000000
   4.85983597  5.61165522  0.00000000
   7.28975396  7.01456902  0.00000000
   7.28975396  4.20874141  0.00000000
   9.71967195  5.61165522  0.00000000
  12.14958994  7.01456902  0.00000000
   1.61994532  0.00000000  2.29094865
   1.61994532  2.80582761  2.29094865
   4.04986331  1.40291380  2.29094865
   6.47978130  0.00000000  2.29094865
   6.47978130  2.80582761  2.29094865
   8.90969929  1.40291380  2.29094865
   4.04986331  4.20874141  2.29094865
  23.48920721  7.01456902  2.29094865
   6.47978130  5.61165522  2.29094865
   8.90969929  4.20874141  2.29094865
   8.90969929  7.01456902  2.29094865
  11.33961727  5.61165522  2.29094865
  20.24974593  1.41102498  4.54386204
   3.24515253  0.01434661  4.54332887
   3.23002061  2.81641355  4.54005046
   5.66747518  1.40140289  4.53849782
  17.82972674 16.82256477  4.53809602
   8.10170820  2.78653770  4.52750480
   3.24713832  5.61708975  4.53089660
   5.66779181  4.20962342  4.52180379
   5.74134205  7.01348011  4.58930169
   8.12997620  5.60693124  4.59103560
  10.51719410  4.21758075  4.56287009
  10.51024380  7.01443769  4.60748178
   0.00671179  0.01031596  6.83867120
   2.42657879  1.41067805  6.83908427
   4.84036764  2.78880641  6.82308264
  14.57911282 16.83198797  6.84270068
   7.28408278  1.35641701  6.82834442
   9.73375346  2.67533272  6.80565754
  21.86252193  4.21215103  6.84004667
   4.84677042  5.60374705  6.80887563
   7.32156757  6.98334087  6.96781469
   7.24388427  4.12348161  6.78651913
   9.75159286  5.42000529  6.93217688
  12.11883824  7.04265382  6.93236132
   4.85983597  8.41748282  0.00000000
   7.28975396  9.82039663  0.00000000
   9.71967195 11.22331043  0.00000000
   9.71967195  8.41748282  0.00000000
  12.14958994  9.82039663  0.00000000
  14.57950792 11.22331043  0.00000000
   7.28975396 12.62622424  0.00000000
   9.71967195 14.02913804  0.00000000
  12.14958994 15.43205185  0.00000000
  12.14958994 12.62622424  0.00000000
  14.57950792 14.02913804  0.00000000
  17.00942591 15.43205185  0.00000000
   6.47978130  8.41748282  2.29094865
  25.91912520 11.22331043  2.29094865
   8.90969929  9.82039663  2.29094865
  11.33961727  8.41748282  2.29094865
  11.33961727 11.22331043  2.29094865
  13.76953526  9.82039663  2.29094865
   8.90969929 12.62622424  2.29094865
   8.90969929 15.43205185  2.29094865
  11.33961727 14.02913804  2.29094865
  13.76953526 12.62622424  2.29094865
  13.76953526 15.43205185  2.29094865
  16.19945325 14.02913804  2.29094865
  25.10402739  9.81432065  4.52426304
   8.12296688  8.41267479  4.59776474
   8.09897308 11.23902680  4.52802565
  10.50643141  9.80361383  4.57265778
  12.93732263  8.39926873  4.56388659
  12.95655502 11.23512479  4.51426712
   8.11068986 14.04003516  4.53799508
  10.54286094 12.64445036  4.52163770
  10.54489629 15.44741116  4.53780539
  12.97500763 14.04775745  4.53894609
  15.39572542 12.64369643  4.53336769
  15.39881770 15.44054160  4.54550833
   4.85752990  8.41333402  6.82530852
   7.23215510  9.89900181  6.78680850
   9.72889827 11.34950490  6.80894655
   9.69779282  8.60581389  6.95189505
  12.21012279  9.90758164  6.78392683
  14.60649714 11.24684975  6.81424270
  26.72217609 12.66883351  6.82828921
   9.73002212 14.07641335  6.82944748
  12.16096127 15.45341170  6.83805876
  12.17105822 12.67418330  6.82604171
  14.59218771 14.04069145  6.84123626
  17.01224749 15.41467665  6.84391765
   9.71967195  0.00000000  0.00000000
  12.14958994  1.40291380  0.00000000
  14.57950792  2.80582761  0.00000000
  14.57950792  0.00000000  0.00000000
  17.00942591  1.40291380  0.00000000
  19.43934390  2.80582761  0.00000000
  12.14958994  4.20874141  0.00000000
  14.57950792  5.61165522  0.00000000
  17.00942591  7.01456902  0.00000000
  17.00942591  4.20874141  0.00000000
  19.43934390  5.61165522  0.00000000
  21.86926189  7.01456902  0.00000000
  11.33961727  0.00000000  2.29094865
  11.33961727  2.80582761  2.29094865
  13.76953526  1.40291380  2.29094865
  16.19945325  0.00000000  2.29094865
  16.19945325  2.80582761  2.29094865
  18.62937124  1.40291380  2.29094865
  13.76953526  4.20874141  2.29094865
  13.76953526  7.01456902  2.29094865
  16.19945325  5.61165522  2.29094865
  18.62937124  4.20874141  2.29094865
  18.62937124  7.01456902  2.29094865
  21.05928922  5.61165522  2.29094865
  10.54547738  1.37955557  4.52083953
  22.69692038 16.81572615  4.53886199
  12.96244835  2.79192804  4.51403398
  15.39994341  1.38790863  4.53582795
  27.55068004 16.83333722  4.54341002
  17.81930576  2.79907625  4.54126205
  12.93944848  5.63453422  4.57390393
  15.38537474  4.20248068  4.53052660
  15.39335080  7.00963680  4.53041522
  17.82117821  5.60761420  4.54225231
  20.24319490  4.21218479  4.54309366
  20.25177264  7.00949253  4.54353950
  19.44754471 16.78248183  6.83062426
  12.17242285  1.34603353  6.82638067
  14.60833337  2.78139754  6.81814351
  24.31264262 16.82115066  6.84179943
  17.01893989  1.40101021  6.83565740
  19.44168882  2.81277003  6.83982657
  12.22226220  4.11290408  6.78267534
  14.59868291  5.60112751  6.81474563
  17.01306068  7.01169339  6.83139711
  17.02130322  4.20416667  6.82991868
  19.43965945  5.61200370  6.84238835
  21.86900083  7.00922743  6.83755475
  14.57950792  8.41748282  0.00000000
  17.00942591  9.82039663  0.00000000
  19.43934390 11.22331043  0.00000000
  19.43934390  8.41748282  0.00000000
  21.86926189  9.82039663  0.00000000
  24.29917987 11.22331043  0.00000000
  17.00942591 12.62622424  0.00000000
  19.43934390 14.02913804  0.00000000
  21.86926189 15.43205185  0.00000000
  21.86926189 12.62622424  0.00000000
  24.29917987 14.02913804  0.00000000
  26.72909786 15.43205185  0.00000000
  16.19945325  8.41748282  2.29094865
  16.19945325 11.22331043  2.29094865
  18.62937124  9.82039663  2.29094865
  21.05928922  8.41748282  2.29094865
  21.05928922 11.22331043  2.29094865
  23.48920721  9.82039663  2.29094865
  18.62937124 12.62622424  2.29094865
  18.62937124 15.43205185  2.29094865
  21.05928922 14.02913804  2.29094865
  23.48920721 12.62622424  2.29094865
  23.48920721 15.43205185  2.29094865
  25.91912520 14.02913804  2.29094865
  15.38391051  9.82762146  4.52367991
  17.81970005  8.41632694  4.53743030
  17.81341938 11.22815157  4.53455366
  20.24420793  9.80916174  4.53037640
  22.69051535  8.40081139  4.53352732
  22.67000277 11.21029252  4.53230699
  17.82916255 14.03110344  4.54364259
  20.24473277 12.61908493  4.53450605
  20.26331238 15.41497438  4.54034364
  22.68638684 14.01888848  4.53681392
  25.10611188 12.62440971  4.53812941
  25.12164367 15.42586274  4.54305357
  14.60235232  8.42395534  6.78992396
  17.01985348  9.81647467  6.82258887
  19.43937887 11.20174395  6.81623211
  19.43955247  8.40549380  6.83498451
  21.86405272  9.80556849  6.82184252
  24.27494149 11.23170760  6.82342653
  17.01792070 12.62455388  6.83304998
  19.44273066 14.01169717  6.84612154
  21.87920662 15.40621803  6.83882067
  21.85892607 12.61680669  6.81392730
  24.29932882 14.03174186  6.83305250
  26.73299619 15.44549458  6.84311144
  24.75110044 12.48460586 11.05227747
  24.45901107 14.24145124 10.70032564
  24.64412474 13.04826542  9.35464013
  14.36113161 10.36533728  9.35038865
  14.28507292 10.45663301 11.13446887
  14.58386327  7.96561001 11.29382637
  15.03660825  7.89365280  9.56091313
  20.51574979 13.84663853 10.30789473
  18.02420684 13.56577719 10.35480136
  20.97755097  9.58573346  9.89700052
  18.48946607  9.30218754  9.97758233
  10.88667267  9.19318597  9.33960329
  11.09367892  4.92628202  9.31615309
   8.62790957  4.80407128  9.32712675
   8.41417501  9.06548608  9.35769669
   4.52016120  5.91088229  9.60942655
   5.00125783  5.89846906 11.33192973
   5.53751584  3.45517627 11.17417091
   5.25530772  3.49492103  9.42251631
   3.05897332  4.02763396 11.53695431
   3.27537037  2.51470846 10.62009879
   2.83758703  4.00954241  9.76559229
  24.27131928 13.21137764 10.38171576
  22.38612689 11.81729934 10.08719203
  20.89691046 11.72482892 10.12482760
  20.06905668 12.85508131 10.24563590
  20.32002980 10.44844053 10.01265475
  18.93345878 10.29335967 10.05926975
  18.10815967 11.42216871 10.20287534
  18.68444361 12.70184051 10.27524155
  16.62106409 11.33241023 10.25091916
  14.73522099  9.91527526 10.28911244
  14.42603662  8.42892568 10.30968097
  12.57405362  7.06218255  9.70955323
  11.26927506  7.06670881  8.94558644
  10.41612867  8.27844731  8.97671608
  10.52649330  5.79025717  8.96306837
   9.09282281  5.72254087  8.96944108
   8.24091977  6.93133146  8.95920735
   8.97990784  8.20833265  8.98662245
   6.94829726  6.89430340  9.75081274
   5.16642005  5.41377138 10.35756185
   4.91946588  3.91831957 10.38881906
   3.44017489  3.60113814 10.59600436
  22.83476496 13.05257049 10.41598928
  16.17304565 10.04464973 10.33296725
  13.02987379  8.32540915  9.92754940
  23.12677441 10.88071403  9.80200445
  15.86910745 12.29705967 10.22217652
  13.15631284  6.05101842 10.07322412
   6.35397169  7.88645615 10.14636526
   6.54813386  5.61568465  9.94704189
 


--------------------------------------------------------------------------------------------------------


 k-point  1 :   0.0000 0.0000 0.0000  plane waves:  142035
 k-point  2 :   0.3333-0.0000 0.0000  plane waves:  141928
 k-point  3 :   0.0000 0.3333 0.0000  plane waves:  141928
 k-point  4 :   0.3333 0.3333 0.0000  plane waves:  141928
 k-point  5 :  -0.3333 0.3333 0.0000  plane waves:  141846

 maximum and minimum number of plane-waves per node :    142035   141846

 maximum number of plane-waves:    142035
 maximum index in each direction: 
   IXMAX=   33   IYMAX=   33   IZMAX=   34
   IXMIN=  -33   IYMIN=  -33   IZMIN=  -34


 serial   3D FFT for wavefunctions
 parallel 3D FFT for charge:
    minimum data exchange during FFTs selected (reduces bandwidth)


 total amount of memory used by VASP MPI-rank0   507678. kBytes
=======================================================================

   base      :      30000. kBytes
   nonlr-proj:      89990. kBytes
   fftplans  :      12889. kBytes
   grid      :      67492. kBytes
   one-center:       3794. kBytes
   wavefun   :     303513. kBytes
 
     INWAV:  cpu time    0.0000: real time    0.0003
 Broyden mixing: mesh for mixing (old mesh)
   NGX = 67   NGY = 67   NGZ = 69
  (NGX  =216   NGY  =216   NGZ  =216)
  gives a total of 309741 points

 initial charge density was supplied:
 charge density of overlapping atoms calculated
 number of electron    2078.0000000 magnetization 
 keeping initial charge density in first step


--------------------------------------------------------------------------------------------------------


 Maximum index for non-local projection operator         2493
 Maximum index for augmentation-charges          552 (set IRDMAX)


--------------------------------------------------------------------------------------------------------


 First call to EWALD:  gamma=   0.095
 Maximum number of real-space cells 3x 3x 3
 Maximum number of reciprocal cells 3x 3x 3

    FEWALD:  cpu time    0.0124: real time    0.0124


--------------------------------------- Iteration      1(   1)  ---------------------------------------


    POTLOK:  cpu time    0.2168: real time    0.2326
    SETDIJ:  cpu time    0.0224: real time    0.0294
     EDDAV:  cpu time  107.2352: real time  107.4594
       DOS:  cpu time    0.0019: real time    0.0036
    --------------------------------------------
      LOOP:  cpu time  107.4763: real time  107.7250

 eigenvalue-minimisations  : 12480
 total energy-change (2. order) : 0.1297307E+05  (-0.9013935E+05)
 number of electron    2078.0000000 magnetization 
 augmentation part     2078.0000000 magnetization 

 DIPCOR: dipole corrections for dipol
 direction  3 min pos   157,
 dipolmoment           0.000000      0.000000     -0.024706 electrons x Angstroem
 Tr[quadrupol]   -136199.414737

 energy correction for charged system         0.000000 eV
 dipol+quadrupol energy correction           -0.000009 eV
 added-field ion interaction         -0.789145 eV  (added to PSCEN)


 Free energy of the ion-electron system (eV)
  ---------------------------------------------------
  alpha Z        PSCENC =      6012.94727366
  Ewald energy   TEWEN  =    322587.25313322
  -Hartree energ DENC   =   -481795.65962817
  -exchange      EXHF   =         0.00000000
  -V(xc)+E(xc)   XCENC  =      1214.61387939
  PAW double counting   =    138862.54824128  -133459.27767989
  entropy T*S    EENTRO =        -0.04011717
  eigenvalues    EBANDS =     12590.54792511
  atomic energy  EATOM  =    146960.13276245
  Solvation  Ediel_sol  =         0.00000000
  ---------------------------------------------------
  free energy    TOTEN  =     12973.06578988 eV

  energy without entropy =    12973.10590705  energy(sigma->0) =    12973.08584846


--------------------------------------------------------------------------------------------------------




--------------------------------------- Iteration      1(   2)  ---------------------------------------


     EDDAV:  cpu time  117.7193: real time  117.8198
       DOS:  cpu time    0.0013: real time    0.0013
    --------------------------------------------
      LOOP:  cpu time  117.7206: real time  117.8211

 eigenvalue-minimisations  : 14160
 total energy-change (2. order) :-0.1353513E+05  (-0.1261474E+05)
 number of electron    2078.0000000 magnetization 
 augmentation part     2078.0000000 magnetization 

 DIPCOR: dipole corrections for dipol
 direction  3 min pos   157,
 dipolmoment           0.000000      0.000000     -0.024706 electrons x Angstroem
 Tr[quadrupol]   -136199.414737

 energy correction for charged system         0.000000 eV
 dipol+quadrupol energy correction           -0.000009 eV
 added-field ion interaction         -0.789145 eV  (added to PSCEN)


 Free energy of the ion-electron system (eV)
  ---------------------------------------------------
  alpha Z        PSCENC =      6012.94727366
  Ewald energy   TEWEN  =    322587.25313322
  -Hartree energ DENC   =   -481795.65962817
  -exchange      EXHF   =         0.00000000
  -V(xc)+E(xc)   XCENC  =      1214.61387939
  PAW double counting   =    138862.54824128  -133459.27767989
  entropy T*S    EENTRO =        -0.08755142
  eigenvalues    EBANDS =      -944.53576696
  atomic energy  EATOM  =    146960.13276245
  Solvation  Ediel_sol  =         0.00000000
  ---------------------------------------------------
  free energy    TOTEN  =      -562.06533645 eV

  energy without entropy =     -561.97778503  energy(sigma->0) =     -562.02156074


--------------------------------------------------------------------------------------------------------




--------------------------------------- Iteration      1(   3)  ---------------------------------------


     EDDAV:  cpu time  134.1528: real time  134.2618
       DOS:  cpu time    0.0013: real time    0.0013
    --------------------------------------------
      LOOP:  cpu time  134.1541: real time  134.2631

 eigenvalue-minimisations  : 15984
 total energy-change (2. order) :-0.9558334E+03  (-0.8775937E+03)
 number of electron    2078.0000000 magnetization 
 augmentation part     2078.0000000 magnetization 

 DIPCOR: dipole corrections for dipol
 direction  3 min pos   157,
 dipolmoment           0.000000      0.000000     -0.024706 electrons x Angstroem
 Tr[quadrupol]   -136199.414737

 energy correction for charged system         0.000000 eV
 dipol+quadrupol energy correction           -0.000009 eV
 added-field ion interaction         -0.789145 eV  (added to PSCEN)


 Free energy of the ion-electron system (eV)
  ---------------------------------------------------
  alpha Z        PSCENC =      6012.94727366
  Ewald energy   TEWEN  =    322587.25313322
  -Hartree energ DENC   =   -481795.65962817
  -exchange      EXHF   =         0.00000000
  -V(xc)+E(xc)   XCENC  =      1214.61387939
  PAW double counting   =    138862.54824128  -133459.27767989
  entropy T*S    EENTRO =        -0.16224925
  eigenvalues    EBANDS =     -1900.29445350
  atomic energy  EATOM  =    146960.13276245
  Solvation  Ediel_sol  =         0.00000000
  ---------------------------------------------------
  free energy    TOTEN  =     -1517.89872081 eV

  energy without entropy =    -1517.73647157  energy(sigma->0) =    -1517.81759619


--------------------------------------------------------------------------------------------------------




--------------------------------------- Iteration      1(   4)  ---------------------------------------


     EDDAV:  cpu time  129.5265: real time  129.7498
       DOS:  cpu time    0.0013: real time    0.0013
    --------------------------------------------
      LOOP:  cpu time  129.5278: real time  129.7511

 eigenvalue-minimisations  : 15984
 total energy-change (2. order) :-0.3876124E+02  (-0.3756649E+02)
 number of electron    2078.0000000 magnetization 
 augmentation part     2078.0000000 magnetization 

 DIPCOR: dipole corrections for dipol
 direction  3 min pos   157,
 dipolmoment           0.000000      0.000000     -0.024706 electrons x Angstroem
 Tr[quadrupol]   -136199.414737

 energy correction for charged system         0.000000 eV
 dipol+quadrupol energy correction           -0.000009 eV
 added-field ion interaction         -0.789145 eV  (added to PSCEN)


 Free energy of the ion-electron system (eV)
  ---------------------------------------------------
  alpha Z        PSCENC =      6012.94727366
  Ewald energy   TEWEN  =    322587.25313322
  -Hartree energ DENC   =   -481795.65962817
  -exchange      EXHF   =         0.00000000
  -V(xc)+E(xc)   XCENC  =      1214.61387939
  PAW double counting   =    138862.54824128  -133459.27767989
  entropy T*S    EENTRO =        -0.16385516
  eigenvalues    EBANDS =     -1939.05409021
  atomic energy  EATOM  =    146960.13276245
  Solvation  Ediel_sol  =         0.00000000
  ---------------------------------------------------
  free energy    TOTEN  =     -1556.65996343 eV

  energy without entropy =    -1556.49610827  energy(sigma->0) =    -1556.57803585


--------------------------------------------------------------------------------------------------------




--------------------------------------- Iteration      1(   5)  ---------------------------------------


     EDDAV:  cpu time  145.3240: real time  145.7910
       DOS:  cpu time    0.0013: real time    0.0013
    --------------------------------------------
      LOOP:  cpu time  145.3254: real time  145.7923

 eigenvalue-minimisations  : 18336
 total energy-change (2. order) :-0.1263316E+01  (-0.1257979E+01)
[...]
 Tr[quadrupol]   -136216.288872

 energy correction for charged system         0.000000 eV
 dipol+quadrupol energy correction           -0.012584 eV
 added-field ion interaction        -24.511117 eV  (added to PSCEN)


  free energy =  -0.144521023977E+04  energy without entropy=  -0.144499605167E+04


--------------------------------------------------------------------------------------------------------




--------------------------------------- Iteration      2(   2)  ---------------------------------------


    POTLOK:  cpu time    0.2039: real time    0.2045
    SETDIJ:  cpu time    0.0218: real time    0.0218
    EDDIAG:  cpu time   20.2713: real time   20.3022
  RMM-DIIS:  cpu time   49.3033: real time   49.3700
    ORTHCH:  cpu time    6.7131: real time    6.7164
       DOS:  cpu time    0.0014: real time    0.0014
    CHARGE:  cpu time    4.6830: real time    4.6877
    MIXING:  cpu time    0.0054: real time    0.0055
    --------------------------------------------
      LOOP:  cpu time   81.2031: real time   81.3095

 eigenvalue-minimisations  : 12522
 total energy-change (2. order) :-0.5772810E-02  (-0.1463625E-03)
 number of electron    2078.0000592 magnetization 
 augmentation part      604.0211644 magnetization 

 DIPCOR: dipole corrections for dipol
 direction  3 min pos   156,
 dipolmoment           0.000000      0.000000     -0.960428 electrons x Angstroem
 Tr[quadrupol]   -136216.246558

 energy correction for charged system         0.000000 eV
 dipol+quadrupol energy correction           -0.013411 eV
 added-field ion interaction        -25.303554 eV  (added to PSCEN)


 eigenvalues of (default mixing * dielectric matrix)
  average eigenvalue GAMMA=   0.0561
  0.0561

  free energy =  -0.144521601258E+04  energy without entropy=  -0.144500209945E+04


--------------------------------------------------------------------------------------------------------




--------------------------------------- Iteration      2(   3)  ---------------------------------------


    POTLOK:  cpu time    0.2064: real time    0.2080
    SETDIJ:  cpu time    0.0217: real time    0.0217
    EDDIAG:  cpu time   20.4105: real time   20.4239
  RMM-DIIS:  cpu time   49.4022: real time   49.4482
    ORTHCH:  cpu time    9.1054: real time    9.1098
       DOS:  cpu time    0.0013: real time    0.0013
    CHARGE:  cpu time    4.6812: real time    4.6854
    MIXING:  cpu time    0.0058: real time    0.0058
    --------------------------------------------
      LOOP:  cpu time   83.8345: real time   83.9041

 eigenvalue-minimisations  : 12435
 total energy-change (2. order) : 0.5659427E-02  (-0.6201274E-04)
 number of electron    2078.0000592 magnetization 
 augmentation part      604.0245003 magnetization 

 DIPCOR: dipole corrections for dipol
 direction  3 min pos   155,
 dipolmoment           0.000000      0.000000     -0.935588 electrons x Angstroem
 Tr[quadrupol]   -136216.478699

 energy correction for charged system         0.000000 eV
 dipol+quadrupol energy correction           -0.012726 eV
 added-field ion interaction        -19.414645 eV  (added to PSCEN)


 eigenvalues of (default mixing * dielectric matrix)
  average eigenvalue GAMMA=   0.1419
  0.2142  0.0696

  free energy =  -0.144521035315E+04  energy without entropy=  -0.144499618791E+04


--------------------------------------------------------------------------------------------------------




--------------------------------------- Iteration      2(   4)  ---------------------------------------


    POTLOK:  cpu time    0.2079: real time    0.2095
    SETDIJ:  cpu time    0.0219: real time    0.0218
    EDDIAG:  cpu time   20.3824: real time   20.4000
  RMM-DIIS:  cpu time   37.2665: real time   37.3030
    ORTHCH:  cpu time    6.7128: real time    6.7158
       DOS:  cpu time    0.0014: real time    0.0014
    CHARGE:  cpu time    4.6882: real time    4.6917
    MIXING:  cpu time    0.0062: real time    0.0062
    --------------------------------------------
      LOOP:  cpu time   69.2873: real time   69.3494

 eigenvalue-minimisations  :  9344
 total energy-change (2. order) : 0.2361555E-04  (-0.5113967E-05)
 number of electron    2078.0000592 magnetization 
 augmentation part      604.0240506 magnetization 

 DIPCOR: dipole corrections for dipol
 direction  3 min pos   155,
 dipolmoment           0.000000      0.000000     -0.934267 electrons x Angstroem
 Tr[quadrupol]   -136216.488175

 energy correction for charged system         0.000000 eV
 dipol+quadrupol energy correction           -0.012690 eV
 added-field ion interaction        -19.387243 eV  (added to PSCEN)


 eigenvalues of (default mixing * dielectric matrix)
  average eigenvalue GAMMA=   0.1903
  0.3467  0.0653  0.1588

  free energy =  -0.144521032953E+04  energy without entropy=  -0.144499617853E+04


--------------------------------------------------------------------------------------------------------




--------------------------------------- Iteration      2(   5)  ---------------------------------------


    POTLOK:  cpu time    0.2034: real time    0.2049
    SETDIJ:  cpu time    0.0222: real time    0.0222
    EDDIAG:  cpu time   20.3818: real time   20.3935
  RMM-DIIS:  cpu time   28.2412: real time   28.2664
    ORTHCH:  cpu time    6.7100: real time    6.7136
       DOS:  cpu time    0.0015: real time    0.0022
    CHARGE:  cpu time    4.6804: real time    4.6852
    MIXING:  cpu time    0.0064: real time    0.0064
    --------------------------------------------
      LOOP:  cpu time   60.2467: real time   60.2944

 eigenvalue-minimisations  :  7036
 total energy-change (2. order) :-0.2572947E-04  (-0.1360568E-05)
 number of electron    2078.0000592 magnetization 
 augmentation part      604.0239609 magnetization 

 DIPCOR: dipole corrections for dipol
 direction  3 min pos   155,
 dipolmoment           0.000000      0.000000     -0.933267 electrons x Angstroem
 Tr[quadrupol]   -136216.494150

 energy correction for charged system         0.000000 eV
 dipol+quadrupol energy correction           -0.012663 eV
 added-field ion interaction        -19.366490 eV  (added to PSCEN)


 eigenvalues of (default mixing * dielectric matrix)
  average eigenvalue GAMMA=   0.2783
  0.7699  0.2020  0.0656  0.0756

  free energy =  -0.144521035526E+04  energy without entropy=  -0.144499619183E+04


--------------------------------------------------------------------------------------------------------




--------------------------------------- Iteration      2(   6)  ---------------------------------------


    POTLOK:  cpu time    0.2036: real time    0.2052
    SETDIJ:  cpu time    0.0220: real time    0.0220
    EDDIAG:  cpu time   20.3994: real time   20.4116
  RMM-DIIS:  cpu time   28.0497: real time   28.1000
    ORTHCH:  cpu time    6.6981: real time    6.7016
       DOS:  cpu time    0.0013: real time    0.0013
    CHARGE:  cpu time    4.6836: real time    4.6914
    MIXING:  cpu time    0.0068: real time    0.0068
    --------------------------------------------
      LOOP:  cpu time   60.0645: real time   60.1398

 eigenvalue-minimisations  :  6958
 total energy-change (2. order) :-0.3037110E-04  (-0.1362839E-05)
 number of electron    2078.0000592 magnetization 
 augmentation part      604.0244420 magnetization 

 DIPCOR: dipole corrections for dipol
 direction  3 min pos   155,
 dipolmoment           0.000000      0.000000     -0.930382 electrons x Angstroem
 Tr[quadrupol]   -136216.504656

 energy correction for charged system         0.000000 eV
 dipol+quadrupol energy correction           -0.012585 eV
 added-field ion interaction        -19.306610 eV  (added to PSCEN)


 eigenvalues of (default mixing * dielectric matrix)
  average eigenvalue GAMMA=   0.3502
  1.1259  0.3245  0.1637  0.0663  0.0707

  free energy =  -0.144521038563E+04  energy without entropy=  -0.144499620567E+04


--------------------------------------------------------------------------------------------------------




--------------------------------------- Iteration      2(   7)  ---------------------------------------


    POTLOK:  cpu time    0.2037: real time    0.2051
    SETDIJ:  cpu time    0.0219: real time    0.0219
    EDDIAG:  cpu time   20.3623: real time   20.3820
  RMM-DIIS:  cpu time   27.5559: real time   27.5880
    ORTHCH:  cpu time    6.6859: real time    6.6900
       DOS:  cpu time    0.0014: real time    0.0014
    CHARGE:  cpu time    4.6887: real time    4.6943
    MIXING:  cpu time    0.0069: real time    0.0069
    --------------------------------------------
      LOOP:  cpu time   59.5266: real time   59.5895

 eigenvalue-minimisations  :  6767
 total energy-change (2. order) :-0.3005582E-04  (-0.7016625E-06)
 number of electron    2078.0000592 magnetization 
 augmentation part      604.0246255 magnetization 

 DIPCOR: dipole corrections for dipol
 direction  3 min pos   155,
 dipolmoment           0.000000      0.000000     -0.929529 electrons x Angstroem
 Tr[quadrupol]   -136216.510452

 energy correction for charged system         0.000000 eV
 dipol+quadrupol energy correction           -0.012562 eV
 added-field ion interaction        -19.288927 eV  (added to PSCEN)


 eigenvalues of (default mixing * dielectric matrix)
  average eigenvalue GAMMA=   0.3857
  1.3727  0.4494  0.2078  0.1477  0.0659  0.0707

  free energy =  -0.144521041569E+04  energy without entropy=  -0.144499623454E+04


--------------------------------------------------------------------------------------------------------




--------------------------------------- Iteration      2(   8)  ---------------------------------------


    POTLOK:  cpu time    0.2029: real time    0.2036
    SETDIJ:  cpu time    0.0219: real time    0.0219
    EDDIAG:  cpu time   20.3553: real time   20.3734
  RMM-DIIS:  cpu time   27.0689: real time   27.5532
    ORTHCH:  cpu time    8.6345: real time    8.6719
       DOS:  cpu time    0.0013: real time    0.0013
    CHARGE:  cpu time    4.6881: real time    4.6926
    MIXING:  cpu time    0.0071: real time    0.0071
    --------------------------------------------
      LOOP:  cpu time   60.9801: real time   61.5250

 eigenvalue-minimisations  :  6681
 total energy-change (2. order) :-0.2591577E-04  (-0.3318955E-06)
 number of electron    2078.0000592 magnetization 
 augmentation part      604.0244625 magnetization 

 DIPCOR: dipole corrections for dipol
 direction  3 min pos   155,
 dipolmoment           0.000000      0.000000     -0.928920 electrons x Angstroem
 Tr[quadrupol]   -136216.516595

 energy correction for charged system         0.000000 eV
 dipol+quadrupol energy correction           -0.012546 eV
 added-field ion interaction        -19.276275 eV  (added to PSCEN)


 eigenvalues of (default mixing * dielectric matrix)
  average eigenvalue GAMMA=   0.4621
  1.8423  0.7712  0.2555  0.1588  0.0661  0.0691  0.0714

  free energy =  -0.144521044161E+04  energy without entropy=  -0.144499627091E+04


--------------------------------------------------------------------------------------------------------




--------------------------------------- Iteration      2(   9)  ---------------------------------------


    POTLOK:  cpu time    0.2045: real time    0.2047
    SETDIJ:  cpu time    0.0221: real time    0.0221
    EDDIAG:  cpu time   20.3924: real time   20.4137
  RMM-DIIS:  cpu time   27.8579: real time   27.8982
    ORTHCH:  cpu time    6.6983: real time    6.7028
       DOS:  cpu time    0.0013: real time    0.0013
    CHARGE:  cpu time    4.6840: real time    4.6886
    MIXING:  cpu time    0.0074: real time    0.0074
    --------------------------------------------
      LOOP:  cpu time   59.8680: real time   59.9388

 eigenvalue-minimisations  :  6779
 total energy-change (2. order) :-0.4661042E-04  (-0.3493108E-06)
 number of electron    2078.0000592 magnetization 
 augmentation part      604.0239978 magnetization 

 DIPCOR: dipole corrections for dipol
 direction  3 min pos   155,
 dipolmoment           0.000000      0.000000     -0.927933 electrons x Angstroem
 Tr[quadrupol]   -136216.532238

 energy correction for charged system         0.000000 eV
 dipol+quadrupol energy correction           -0.012519 eV
 added-field ion interaction        -19.255795 eV  (added to PSCEN)


 eigenvalues of (default mixing * dielectric matrix)
  average eigenvalue GAMMA=   0.4637
  2.0665  0.7803  0.2818  0.2197  0.1580  0.0712  0.0662  0.0655

  free energy =  -0.144521048822E+04  energy without entropy=  -0.144499631949E+04


--------------------------------------------------------------------------------------------------------




--------------------------------------- Iteration      2(  10)  ---------------------------------------


    POTLOK:  cpu time    0.2039: real time    0.2039
    SETDIJ:  cpu time    0.0219: real time    0.0219
    EDDIAG:  cpu time   20.3763: real time   20.3972
  RMM-DIIS:  cpu time   26.8314: real time   26.8660
    ORTHCH:  cpu time    6.7083: real time    6.7119
       DOS:  cpu time    0.0013: real time    0.0013
    CHARGE:  cpu time    4.6886: real time    4.6933
    MIXING:  cpu time    0.0077: real time    0.0077
    --------------------------------------------
      LOOP:  cpu time   58.8396: real time   58.9033

 eigenvalue-minimisations  :  6314
 total energy-change (2. order) :-0.2236554E-04  (-0.1674393E-06)
 number of electron    2078.0000592 magnetization 
 augmentation part      604.0242112 magnetization 

 DIPCOR: dipole corrections for dipol
 direction  3 min pos   155,
 dipolmoment           0.000000      0.000000     -0.927151 electrons x Angstroem
 Tr[quadrupol]   -136216.537641

 energy correction for charged system         0.000000 eV
 dipol+quadrupol energy correction           -0.012498 eV
 added-field ion interaction        -19.239568 eV  (added to PSCEN)


 eigenvalues of (default mixing * dielectric matrix)
  average eigenvalue GAMMA=   0.4375
  2.1086  0.7604  0.3379  0.2480  0.1595  0.1197  0.0713  0.0660  0.0660

  free energy =  -0.144521051058E+04  energy without entropy=  -0.144499633304E+04


--------------------------------------------------------------------------------------------------------




--------------------------------------- Iteration      2(  11)  ---------------------------------------


    POTLOK:  cpu time    0.2038: real time    0.2038
    SETDIJ:  cpu time    0.0219: real time    0.0219
    EDDIAG:  cpu time   20.3582: real time   20.3779
  RMM-DIIS:  cpu time   18.7274: real time   18.7506
    ORTHCH:  cpu time    6.6924: real time    6.6968
       DOS:  cpu time    0.0013: real time    0.0013
    --------------------------------------------
      LOOP:  cpu time   46.0051: real time   46.0523

 eigenvalue-minimisations  :  2009
 total energy-change (2. order) :-0.8317118E-05  (-0.1958849E-07)
 number of electron    2078.0000592 magnetization 
 augmentation part      604.0242112 magnetization 

 DIPCOR: dipole corrections for dipol
 direction  3 min pos   155,
 dipolmoment           0.000000      0.000000     -0.926876 electrons x Angstroem
 Tr[quadrupol]   -136216.539943

 energy correction for charged system         0.000000 eV
 dipol+quadrupol energy correction           -0.012490 eV
 added-field ion interaction        -19.233857 eV  (added to PSCEN)


  free energy =  -0.144521051890E+04  energy without entropy=  -0.144499634745E+04


--------------------------------------------------------------------------------------------------------




------------------------ aborting loop because EDIFF is reached ----------------------------------------


    CHARGE:  cpu time    4.6759: real time    4.6804
    FORLOC:  cpu time    0.2227: real time    0.2228
    FORNL :  cpu time   17.3556: real time   17.3729
    STRESS:  cpu time   51.9106: real time   51.9569
    FORCOR:  cpu time    0.3578: real time    0.3579
    FORHAR:  cpu time    0.2585: real time    0.2585
    MIXING:  cpu time    0.0078: real time    0.0078
    OFIELD:  cpu time    0.0001: real time    0.0001

  Number of pair interactions contributing to vdW energy: 1215135
  Edisp (eV):  -23.59225
    FORVDW:  cpu time    0.1938: real time    0.1938

  FORCE on cell =-STRESS in cart. coord.  units (eV):
  Direction    XX          YY          ZZ          XY          YZ          ZX
  --------------------------------------------------------------------------------------
  Alpha Z  6013.73643  6013.73643  6013.73643
  Ewald  429468.08889423714.31509************  1783.36727   319.90359  -215.14331
  Hartree467878.88704462517.38287************  1545.78571   200.26214  -153.99223
  E(xc)   -9127.41676 -9127.03238 -9188.20566    -0.02668     0.61570    -0.32138
  Local  ************************941903.81270 -3350.79195  -506.39011   363.11484
  n-local   535.02108   524.81456   437.83308     6.44228    -1.00891    -0.21718
  augment 10071.45992 10069.14923 10339.50050     1.04020    -0.71715     1.28134
  Kinetic 30263.17685 30246.21655 31128.92580    14.07142   -12.15000     4.91381
  Fock        0.00000     0.00000     0.00000     0.00000     0.00000     0.00000
  vdW       -31.70551   -31.51295   -26.45662    -0.40551    -0.05275     0.03113
  -------------------------------------------------------------------------------------
  Total    -213.08757  -207.18524    -3.22614    -0.51726     0.46251    -0.33299
  in kB     -52.16088   -50.71607    -0.78971    -0.12662     0.11322    -0.08151
  external pressure =      -34.56 kB  Pullay stress =        0.00 kB



--------------------------------------------------------------------------------------------------------



  FREE ENERGIE OF THE ION-ELECTRON SYSTEM (eV)
  ---------------------------------------------------
  free  energy   TOTEN  =     -1468.80277327 eV

  energy  without entropy=    -1468.58860182  energy(sigma->0) =    -1468.69568755
 
 d Force = 0.9996009E-04[ 0.196E-04, 0.180E-03]  d Energy = 0.5805426E-03-0.481E-03
 d Force =-0.7866040E+00[-0.787E+00,-0.786E+00]  d Ewald  =-0.7866053E+00 0.129E-05


--------------------------------------------------------------------------------------------------------


    POTLOK:  cpu time    0.2285: real time    0.2285


--------------------------------------------------------------------------------------------------------


 Steepest descent step on ions:
 trial-energy change:   -0.000581  1 .order   -0.000100   -0.000180   -0.000020
  (g-gl).g = 0.180E-03      g.g   = 0.180E-03  gl.gl    = 0.000E+00
 g(Force)  = 0.180E-03   g(Stress)= 0.000E+00 ortho     = 0.000E+00
 gamma     =   0.00000
 trial     =   1.00000
 opt step  =   1.00640  (harmonic =   1.12192) maximal distance =0.00037879
 next E    = -1468.802773   (d E  =  -0.00058)


--------------------------------------------------------------------------------------------------------


  
 reached required accuracy - stopping structural energy minimisation
     LOOP+:  cpu time  829.9733: real time  831.2940
    4ORBIT:  cpu time    0.0000: real time    0.0000

 total amount of memory used by VASP MPI-rank0   507678. kBytes
=======================================================================

   base      :      30000. kBytes
   nonlr-proj:      89990. kBytes
   fftplans  :      12889. kBytes
   grid      :      67492. kBytes
   one-center:       3794. kBytes
   wavefun   :     303513. kBytes
 
  
  
 General timing and accounting informations for this job:
 ========================================================
  
                  Total CPU time used (sec):     5385.368
                            User time (sec):     5374.708
                          System time (sec):       10.661
                         Elapsed time (sec):     5399.509
  
                   Maximum memory used (kb):     1012960.
                   Average memory used (kb):           0.
  
                          Minor page faults:       296982
                          Major page faults:            0
                 Voluntary context switches:         4175
