 vasp.5.4.4.18Apr17-6-g9f103f2a35 (build Jun 30 2017 19:19:18) complex          
  
 executed on         MareNostrum4 date 2022.04.12  11:02:58
 running on   48 total cores
 distrk:  each k-point on   48 cores,    1 groups
 distr:  one band on NCORES_PER_BAND=   1 cores,   48 groups


--------------------------------------------------------------------------------------------------------


 INCAR:
 POTCAR:    PAW_PBE Ag 02Apr2005                  
 POTCAR:    PAW_PBE O 08Apr2002                   
 POTCAR:    PAW_PBE C 08Apr2002                   
 POTCAR:    PAW_PBE N 08Apr2002                   
 POTCAR:    PAW_PBE H 15Jun2001                   

 ----------------------------------------------------------------------------- 
|                                                                             |
|           W    W    AA    RRRRR   N    N  II  N    N   GGGG   !!!           |
|           W    W   A  A   R    R  NN   N  II  NN   N  G    G  !!!           |
|           W    W  A    A  R    R  N N  N  II  N N  N  G       !!!           |
|           W WW W  AAAAAA  RRRRR   N  N N  II  N  N N  G  GGG   !            |
|           WW  WW  A    A  R   R   N   NN  II  N   NN  G    G                |
|           W    W  A    A  R    R  N    N  II  N    N   GGGG   !!!           |
|                                                                             |
|      For optimal performance we recommend to set                            |
|        NCORE= 4 - approx SQRT( number of cores)                             |
|      NCORE specifies how many cores store one orbital (NPAR=cpu/NCORE).     |
|      This setting can  greatly improve the performance of VASP for DFT.     |
|      The default,   NCORE=1            might be grossly inefficient         |
|      on modern multi-core architectures or massively parallel machines.     |
|      Do your own testing !!!!                                               |
|      Unfortunately you need to use the default for GW and RPA calculations. |
|      (for HF NCORE is supported but not extensively tested yet)             |
|                                                                             |
 ----------------------------------------------------------------------------- 

 POTCAR:    PAW_PBE Ag 02Apr2005                  
  local pseudopotential read in
  partial core-charges read in
  partial kinetic energy density read in
  atomic valenz-charges read in
  non local Contribution for L=           2  read in
    real space projection operators read in
  non local Contribution for L=           2  read in
    real space projection operators read in
  non local Contribution for L=           0  read in
    real space projection operators read in
  non local Contribution for L=           0  read in
    real space projection operators read in
  non local Contribution for L=           1  read in
    real space projection operators read in
  non local Contribution for L=           1  read in
    real space projection operators read in
    PAW grid and wavefunctions read in
 
   number of l-projection  operators is LMAX  =           6
   number of lm-projection operators is LMMAX =          18
 
 POTCAR:    PAW_PBE O 08Apr2002                   
  local pseudopotential read in
  partial core-charges read in
  partial kinetic energy density read in
  kinetic energy density of atom read in
  atomic valenz-charges read in
  non local Contribution for L=           0  read in
    real space projection operators read in
  non local Contribution for L=           0  read in
    real space projection operators read in
  non local Contribution for L=           1  read in
    real space projection operators read in
  non local Contribution for L=           1  read in
    real space projection operators read in
    PAW grid and wavefunctions read in
 
   number of l-projection  operators is LMAX  =           4
   number of lm-projection operators is LMMAX =           8
 
 POTCAR:    PAW_PBE C 08Apr2002                   
  local pseudopotential read in
  partial core-charges read in
  partial kinetic energy density read in
  atomic valenz-charges read in
  non local Contribution for L=           0  read in
    real space projection operators read in
  non local Contribution for L=           0  read in
    real space projection operators read in
  non local Contribution for L=           1  read in
    real space projection operators read in
  non local Contribution for L=           1  read in
    real space projection operators read in
    PAW grid and wavefunctions read in
 
   number of l-projection  operators is LMAX  =           4
   number of lm-projection operators is LMMAX =           8
 
 POTCAR:    PAW_PBE N 08Apr2002                   
  local pseudopotential read in
  partial core-charges read in
  partial kinetic energy density read in
  atomic valenz-charges read in
  non local Contribution for L=           0  read in
    real space projection operators read in
  non local Contribution for L=           0  read in
    real space projection operators read in
  non local Contribution for L=           1  read in
    real space projection operators read in
  non local Contribution for L=           1  read in
    real space projection operators read in
    PAW grid and wavefunctions read in
 
   number of l-projection  operators is LMAX  =           4
   number of lm-projection operators is LMMAX =           8
 
 POTCAR:    PAW_PBE H 15Jun2001                   
  local pseudopotential read in
  atomic valenz-charges read in
  non local Contribution for L=           0  read in
    real space projection operators read in
  non local Contribution for L=           0  read in
    real space projection operators read in
  non local Contribution for L=           1  read in
    real space projection operators read in
    PAW grid and wavefunctions read in
 
   number of l-projection  operators is LMAX  =           3
   number of lm-projection operators is LMMAX =           5
 
 Optimization of the real space projectors (new method)

 maximal supplied QI-value         = 15.12
 optimisation between [QCUT,QGAM] = [ 10.73, 21.62] = [ 32.26,130.87] Ry 
 Optimized for a Real-space Cutoff    1.42 Angstroem

   l    n(q)    QCUT    max X(q) W(low)/X(q) W(high)/X(q)  e(spline) 
   2      8    10.734    53.897    0.46E-03    0.48E-03    0.17E-06
   2      8    10.734    52.416    0.47E-03    0.50E-03    0.17E-06
   0      9    10.734   122.045    0.16E-03    0.13E-03    0.44E-07
   0      9    10.734    73.629    0.16E-03    0.13E-03    0.43E-07
   1      9    10.734    15.255    0.66E-04    0.32E-03    0.15E-06
   1      9    10.734     9.562    0.55E-04    0.26E-03    0.12E-06
 Optimization of the real space projectors (new method)

 maximal supplied QI-value         = 24.76
 optimisation between [QCUT,QGAM] = [ 10.64, 21.54] = [ 31.73,129.89] Ry 
 Optimized for a Real-space Cutoff    1.23 Angstroem

   l    n(q)    QCUT    max X(q) W(low)/X(q) W(high)/X(q)  e(spline) 
   0      8    10.645    20.381    0.38E-03    0.60E-03    0.15E-06
   0      8    10.645    15.268    0.40E-03    0.65E-03    0.17E-06
   1      7    10.645     5.964    0.30E-03    0.63E-03    0.18E-06
   1      7    10.645     5.382    0.24E-03    0.53E-03    0.16E-06
 Optimization of the real space projectors (new method)

 maximal supplied QI-value         = 25.13
 optimisation between [QCUT,QGAM] = [ 10.81, 21.61] = [ 32.71,130.83] Ry 
 Optimized for a Real-space Cutoff    1.23 Angstroem

   l    n(q)    QCUT    max X(q) W(low)/X(q) W(high)/X(q)  e(spline) 
   0      8    10.807   115.676    0.36E-03    0.72E-03    0.24E-06
   0      8    10.807    87.132    0.35E-03    0.71E-03    0.24E-06
   1      7    10.807     4.429    0.19E-03    0.39E-03    0.11E-06
   1      7    10.807     2.733    0.14E-03    0.28E-03    0.13E-06
 Optimization of the real space projectors (new method)

 maximal supplied QI-value         = 25.13
 optimisation between [QCUT,QGAM] = [ 10.81, 21.61] = [ 32.71,130.83] Ry 
 Optimized for a Real-space Cutoff    1.23 Angstroem

   l    n(q)    QCUT    max X(q) W(low)/X(q) W(high)/X(q)  e(spline) 
   0      8    10.807    79.467    0.34E-03    0.68E-03    0.21E-06
   0      8    10.807    66.151    0.34E-03    0.67E-03    0.21E-06
   1      7    10.807    14.030    0.45E-03    0.13E-02    0.11E-05
   1      7    10.807     9.831    0.48E-03    0.13E-02    0.11E-05
 Optimization of the real space projectors (new method)

 maximal supplied QI-value         = 34.20
 optimisation between [QCUT,QGAM] = [ 10.60, 21.55] = [ 31.48,130.03] Ry 
 Optimized for a Real-space Cutoff    1.23 Angstroem

   l    n(q)    QCUT    max X(q) W(low)/X(q) W(high)/X(q)  e(spline) 
   0      8    10.603    19.460    0.37E-03    0.59E-03    0.23E-06
   0      8    10.603    12.209    0.35E-03    0.56E-03    0.22E-06
   1      7    10.603     4.655    0.70E-04    0.28E-03    0.29E-06
  PAW_PBE Ag 02Apr2005                  :
 energy of atom  1       EATOM=-1037.2675
 kinetic energy error for atom=    0.0055 (will be added to EATOM!!)
  PAW_PBE O 08Apr2002                   :
 energy of atom  2       EATOM= -432.3788
 kinetic energy error for atom=    0.0389 (will be added to EATOM!!)
  PAW_PBE C 08Apr2002                   :
 energy of atom  3       EATOM= -147.1560
 kinetic energy error for atom=    0.0116 (will be added to EATOM!!)
  PAW_PBE N 08Apr2002                   :
 energy of atom  4       EATOM= -264.5486
 kinetic energy error for atom=    0.0253 (will be added to EATOM!!)
  PAW_PBE H 15Jun2001                   :
 energy of atom  5       EATOM=  -12.4884
 kinetic energy error for atom=    0.0045 (will be added to EATOM!!)
 
 
 POSCAR: Ag  O  C  N  H                          
  positions in direct lattice
  velocities in cartesian coordinates
 exchange correlation table for  LEXCH =        8
   RHO(1)=    0.500       N(1)  =     2000
   RHO(2)=  100.500       N(2)  =     4000
 


--------------------------------------------------------------------------------------------------------


 ion  position               nearest neighbor table
   1  0.000  0.000  0.000-  28 2.89   4 2.89   3 2.89  35 2.89  10 2.89   2 2.89  70 2.89  40 2.89
                            47 2.89
   2  1.000  0.167  0.000-  27 2.89   8 2.89   5 2.89  28 2.89   3 2.89   1 2.89  39 2.89  61 2.89
                            40 2.89
   3  0.167  0.167  0.000-  14 2.89  17 2.89   8 2.89   2 2.89   1 2.89   4 2.89  38 2.89  40 2.89
                            37 2.89
   4  0.167  0.000  0.000-  13 2.89  14 2.89   1 2.89  11 2.89  10 2.89   3 2.89  37 2.89  47 2.89
                            46 2.89
   5  0.000  0.333  0.000-   8 2.89  27 2.89   2 2.89  32 2.89   6 2.89   7 2.89  62 2.89  44 2.89
                            39 2.89
   6  0.000  0.500  0.000-  12 2.89   7 2.89   9 2.89  31 2.89   5 2.89  32 2.89  43 2.89  65 2.89
                            44 2.89
   7  0.167  0.500  0.000-   6 2.89  18 2.89  21 2.89  12 2.89   5 2.89   8 2.89  42 2.89  44 2.89
                            41 2.89
   8  0.167  0.333  0.000-   5 2.89   2 2.89   3 2.89  17 2.89  18 2.89   7 2.89  39 2.89  41 2.89
                            38 2.89
   9  0.000  0.667  0.000-  12 2.89  36 2.89  31 2.89  11 2.89   6 2.89  10 2.89  66 2.89  48 2.89
                            43 2.89
  10  1.000  0.833  0.000-  36 2.89  35 2.89   9 2.89  11 2.89   1 2.89   4 2.89  69 2.89  47 2.89
                            48 2.89
  11  0.167  0.833  0.000-  22 2.89   9 2.89  12 2.89  10 2.89   4 2.89  13 2.89  46 2.89  48 2.89
                            45 2.89
  12  0.167  0.667  0.000-   6 2.89   9 2.89  22 2.89  11 2.89   7 2.89  21 2.89  43 2.89  45 2.89
                            42 2.89
  13  0.333  0.000  0.000-   4 2.89  16 2.89  15 2.89  22 2.89  11 2.89  14 2.89  46 2.89  52 2.89
                            59 2.89
  14  0.333  0.167  0.000-   3 2.89  17 2.89   4 2.89  20 2.89  15 2.89  13 2.89  51 2.89  37 2.89
                            52 2.89
  15  0.500  0.167  0.000-  26 2.89  20 2.89  29 2.89  14 2.89  13 2.89  16 2.89  50 2.89  52 2.89
                            49 2.89
  16  0.500  0.000  0.000-  25 2.89  26 2.89  13 2.89  23 2.89  22 2.89  15 2.89  49 2.89  59 2.89
                            58 2.89
  17  0.333  0.333  0.000-  14 2.89   3 2.89   8 2.89  20 2.89  19 2.89  18 2.89  38 2.89  56 2.89
                            51 2.89
  18  0.333  0.500  0.000-   7 2.89  21 2.89  24 2.89  19 2.89   8 2.89  17 2.89  55 2.89  41 2.89
                            56 2.89
  19  0.500  0.500  0.000-  30 2.89  24 2.89  33 2.89  18 2.89  17 2.89  20 2.89  54 2.89  56 2.89
                            53 2.89
  20  0.500  0.333  0.000-  29 2.89  15 2.89  30 2.89  14 2.89  17 2.89  19 2.89  53 2.89  51 2.89
                            50 2.89
  21  0.333  0.667  0.000-  18 2.89  23 2.89   7 2.89  22 2.89  12 2.89  24 2.89  42 2.89  60 2.89
                            55 2.89
  22  0.333  0.833  0.000-  11 2.89  12 2.89  21 2.89  23 2.89  13 2.89  16 2.89  45 2.89  59 2.89
                            60 2.89
  23  0.500  0.833  0.000-  34 2.89  21 2.89  24 2.89  22 2.89  25 2.89  16 2.89  58 2.89  60 2.89
                            57 2.89
  24  0.500  0.667  0.000-  34 2.89  33 2.89  19 2.89  23 2.89  18 2.89  21 2.89  57 2.89  55 2.89
                            54 2.89
  25  0.667  0.000  0.000-  16 2.89  28 2.89  23 2.89  27 2.89  34 2.89  26 2.89  58 2.89  64 2.89
                            71 2.89
  26  0.667  0.167  0.000-  15 2.89  32 2.89  29 2.89  16 2.89  27 2.89  25 2.89  63 2.89  49 2.89
                            64 2.89
  27  0.833  0.167  0.000-   2 2.89   5 2.89  32 2.89  26 2.89  25 2.89  28 2.89  62 2.89  64 2.89
                            61 2.89
  28  0.833  0.000  0.000-   1 2.89   2 2.89  25 2.89  35 2.89  34 2.89  27 2.89  61 2.89  71 2.89
                            70 2.89
  29  0.667  0.333  0.000-  20 2.89  32 2.89  15 2.89  26 2.89  31 2.89  30 2.89  50 2.89  68 2.89
                            63 2.89
  30  0.667  0.500  0.000-  19 2.89  33 2.89  20 2.89  36 2.89  31 2.89  29 2.89  67 2.89  53 2.89
                            68 2.89
  31  0.833  0.500  0.000-   9 2.89  36 2.89  30 2.89   6 2.89  32 2.89  29 2.89  66 2.89  68 2.89
                            65 2.89
  32  0.833  0.333  0.000-  29 2.89  26 2.89  27 2.89   5 2.89  31 2.89   6 2.89  63 2.89  65 2.89
                            62 2.89
  33  0.667  0.667  0.000-  24 2.89  19 2.89  30 2.89  35 2.89  34 2.89  36 2.89  54 2.89  72 2.89
                            67 2.89
  34  0.667  0.833  0.000-  24 2.89  23 2.89  33 2.89  35 2.89  25 2.89  28 2.89  57 2.89  71 2.89
                            72 2.89
  35  0.833  0.833  0.000-  10 2.89  33 2.89  36 2.89  34 2.89   1 2.89  28 2.89  70 2.89  72 2.89
                            69 2.89
  36  0.833  0.667  0.000-  10 2.89   9 2.89  31 2.89  35 2.89  30 2.89  33 2.89  69 2.89  67 2.89
                            66 2.89
  37  0.222  0.111  0.107-  52 2.89  51 2.89  38 2.89  40 2.89  46 2.89  47 2.89  14 2.89   4 2.89
                             3 2.89  76 2.91  75 2.92  74 2.92
  38  0.222  0.278  0.107-  51 2.89  37 2.89  56 2.89  40 2.89  39 2.89  41 2.89   3 2.89  17 2.89
                             8 2.89  76 2.91  79 2.92  73 2.92
  39  0.056  0.278  0.107-  62 2.89  61 2.89  40 2.89  38 2.89  44 2.89  41 2.89   2 2.89   8 2.89
                             5 2.89  78 2.90 100 2.92  73 2.92
  40  0.056  0.111  0.107-  61 2.89  39 2.89  70 2.89  38 2.89  37 2.89  47 2.89   1 2.89   3 2.89
                             2 2.89  99 2.92  73 2.92  74 2.92
  41  0.222  0.444  0.107-  56 2.89  55 2.89  42 2.89  44 2.89  39 2.89  38 2.89  18 2.89   8 2.89
                             7 2.89  78 2.91  80 2.91  79 2.92
  42  0.222  0.611  0.107-  55 2.89  41 2.89  60 2.89  44 2.89  43 2.89  45 2.89   7 2.89  21 2.89
                            12 2.89  77 2.90  83 2.91  80 2.91
  43  0.056  0.611  0.107-  66 2.89  65 2.89  44 2.89  42 2.89  48 2.89  45 2.89   6 2.89  12 2.89
                             9 2.89  77 2.90 104 2.90  82 2.91
  44  0.056  0.444  0.107-  65 2.89  43 2.89  62 2.89  42 2.89  41 2.89  39 2.89   5 2.89   7 2.89
                             6 2.89  77 2.90 103 2.91  78 2.91
  45  0.222  0.778  0.107-  60 2.89  59 2.89  46 2.89  48 2.89  42 2.89  43 2.89  22 2.89  12 2.89
                            11 2.89  82 2.91  83 2.91  84 2.91
  46  0.222  0.944  0.107-  59 2.89  45 2.89  52 2.89  48 2.89  47 2.89  37 2.89  13 2.89  11 2.89
                             4 2.89  84 2.91  81 2.92  75 2.92
  47  0.056  0.944  0.107-  70 2.89  69 2.89  48 2.89  46 2.89  40 2.89  37 2.89  10 2.89   4 2.89
                             1 2.89 108 2.91  81 2.92  74 2.92
  48  0.056  0.778  0.107-  69 2.89  47 2.89  66 2.89  46 2.89  45 2.89  43 2.89  11 2.89   9 2.89
                            10 2.89 107 2.90  82 2.91  81 2.92
  49  0.556  0.111  0.107-  64 2.89  63 2.89  50 2.89  52 2.89  58 2.89  59 2.89  26 2.89  16 2.89
                            15 2.89  88 2.90  86 2.91  87 2.91
  50  0.556  0.278  0.107-  63 2.89  49 2.89  68 2.89  52 2.89  51 2.89  53 2.89  15 2.89  29 2.89
                            20 2.89  88 2.90  91 2.91  85 2.91
  51  0.389  0.278  0.107-  90 2.89  38 2.89  37 2.89  52 2.89  50 2.89  53 2.89  56 2.89  14 2.89
                            20 2.89  17 2.89  85 2.90  76 2.92
  52  0.389  0.111  0.107-  37 2.89  51 2.89  46 2.89  50 2.89  49 2.89  59 2.89  13 2.89  15 2.89
                            14 2.89  85 2.90  86 2.91  75 2.92
  53  0.556  0.444  0.107-  68 2.89  67 2.89  54 2.89  56 2.89  51 2.89  50 2.89  30 2.89  20 2.89
                            19 2.89  92 2.90  90 2.90  91 2.90
  54  0.556  0.611  0.107-  67 2.89  53 2.89  72 2.89  56 2.89  55 2.89  57 2.89  19 2.89  33 2.89
                            24 2.89  92 2.90  89 2.90  95 2.90
  55  0.389  0.611  0.107-  89 2.89  42 2.89  41 2.89  56 2.89  54 2.89  60 2.89  57 2.89  18 2.89
                            24 2.89  21 2.89  94 2.90  80 2.91
  56  0.389  0.444  0.107-  41 2.89  55 2.89  38 2.89  54 2.89  53 2.89  51 2.89  17 2.89  19 2.89
                            18 2.89  90 2.89  89 2.90  79 2.92
  57  0.556  0.778  0.107-  72 2.89  71 2.89  58 2.89  60 2.89  54 2.89  55 2.89  34 2.89  24 2.89
                            23 2.89  95 2.89  94 2.90  96 2.90
  58  0.556  0.944  0.107-  71 2.89  57 2.89  64 2.89  60 2.89  59 2.89  49 2.89  25 2.89  23 2.89
                            16 2.89  96 2.90  93 2.91  87 2.91
  59  0.389  0.944  0.107-  46 2.89  45 2.89  60 2.89  58 2.89  52 2.89  49 2.89  22 2.89  16 2.89
                            13 2.89  93 2.90  86 2.90  84 2.91
  60  0.389  0.778  0.107-  45 2.89  59 2.89  42 2.89  58 2.89  57 2.89  55 2.89  23 2.89  21 2.89
                            22 2.89  94 2.90  93 2.91  83 2.91
  61  0.889  0.111  0.107-  40 2.89  39 2.89  62 2.89  64 2.89  70 2.89  71 2.89   2 2.89  28 2.89
                            27 2.89  98 2.92  99 2.92 100 2.92
  62  0.889  0.278  0.107-  39 2.89  61 2.89  44 2.89  64 2.89  63 2.89  65 2.89  27 2.89   5 2.89
                            32 2.89 103 2.91  97 2.91 100 2.92
  63  0.722  0.278  0.107-  50 2.89  49 2.89  64 2.89  62 2.89  65 2.89  68 2.89  26 2.89  32 2.89
                            29 2.89  88 2.90 102 2.90  97 2.91
  64  0.722  0.111  0.107-  49 2.89  63 2.89  58 2.89  62 2.89  61 2.89  71 2.89  25 2.89  27 2.89
                            26 2.89  97 2.91  87 2.91  98 2.92
  65  0.889  0.444  0.107-  44 2.89  43 2.89  66 2.89  68 2.89  63 2.89  62 2.89   6 2.89  32 2.89
                            31 2.89 102 2.90 104 2.91 103 2.91
  66  0.889  0.611  0.107-  43 2.89  65 2.89  48 2.89  68 2.89  67 2.89  69 2.89  31 2.89   9 2.89
                            36 2.89 101 2.90 104 2.91 107 2.91
  67  0.722  0.611  0.107-  92 2.89  54 2.89  53 2.89  68 2.89  66 2.89  72 2.89  69 2.89  30 2.89
                            36 2.89  33 2.89 101 2.91 106 2.91
  68  0.722  0.444  0.107-  53 2.89  67 2.89  50 2.89  66 2.89  65 2.89  63 2.89  29 2.89  31 2.89
                            30 2.89  91 2.90 102 2.91 101 2.91
  69  0.889  0.778  0.107-  48 2.89  47 2.89  70 2.89  72 2.89  66 2.89  67 2.89  10 2.89  36 2.89
                            35 2.89 106 2.90 107 2.91 108 2.92
  70  0.889  0.944  0.107-  47 2.89  69 2.89  40 2.89  72 2.89  71 2.89  61 2.89   1 2.89  35 2.89
                            28 2.89 105 2.90  99 2.92 108 2.92
  71  0.722  0.944  0.107-  58 2.89  57 2.89  72 2.89  70 2.89  64 2.89  61 2.89  34 2.89  28 2.89
                            25 2.89  96 2.90 105 2.91  98 2.92
  72  0.722  0.778  0.107-  57 2.89  71 2.89  54 2.89  70 2.89  69 2.89  67 2.89  35 2.89  33 2.89
                            34 2.89  95 2.90 106 2.91 105 2.91
  73  0.111  0.222  0.215-  78 2.89  76 2.89  99 2.89  79 2.89  74 2.89 100 2.89  40 2.92  38 2.92
                            39 2.92 111 2.93 110 2.93 116 2.93
  74  0.111  0.056  0.215- 108 2.88  76 2.89  73 2.89  75 2.89  81 2.89  99 2.89  37 2.92  40 2.92
                            47 2.92 109 2.93 112 2.93 111 2.93
  75  0.278  0.056  0.215-  81 2.89  85 2.89  84 2.89  86 2.89  74 2.89  76 2.89  52 2.92  37 2.92
                            46 2.92 121 2.93 112 2.94 122 2.94
  76  0.278  0.222  0.215-  90 2.89  74 2.89  73 2.89  75 2.89  85 2.89  79 2.89  37 2.91  38 2.91
                            51 2.92 111 2.94 125 2.94 122 2.94
  77  0.111  0.556  0.214- 104 2.89  83 2.89 103 2.89  82 2.89  80 2.89  78 2.90  43 2.90  42 2.90
                            44 2.90 115 2.91 120 2.93 114 2.94
  78  0.111  0.388  0.215-  73 2.89 100 2.89 103 2.89  79 2.89  80 2.90  77 2.90  39 2.90 115 2.90
                            41 2.91  44 2.91 113 2.94 116 2.95
  79  0.278  0.389  0.215-  90 2.89  78 2.89  73 2.89  80 2.89  76 2.89  89 2.89  38 2.92  41 2.92
                            56 2.92 126 2.93 116 2.94 125 2.94
  80  0.278  0.556  0.215-  89 2.88  79 2.89  83 2.89  77 2.89  94 2.89  78 2.90 115 2.90  55 2.91
                            41 2.91  42 2.91 129 2.91 126 2.94
  81  0.111  0.889  0.215-  84 2.89 107 2.89  75 2.89 108 2.89  82 2.89  74 2.89  46 2.92  47 2.92
                            48 2.92 118 2.93 119 2.93 112 2.93
  82  0.111  0.722  0.215- 107 2.89  84 2.89  83 2.89 104 2.89  81 2.89  77 2.89  45 2.91  48 2.91
                            43 2.91 120 2.93 117 2.93 119 2.94
  83  0.278  0.722  0.215-  94 2.89  82 2.89  77 2.89  93 2.89  80 2.89  84 2.89  45 2.91  60 2.91
                            42 2.91 129 2.92 120 2.93 130 2.93
  84  0.278  0.889  0.215-  81 2.89  86 2.89  75 2.89  82 2.89  93 2.89  83 2.89  46 2.91  59 2.91
                            45 2.91 130 2.93 119 2.94 121 2.94
  85  0.444  0.222  0.214-  75 2.89  76 2.89  90 2.89  86 2.89  88 2.89  91 2.90  52 2.90  51 2.90
                            50 2.91 128 2.92 123 2.92 122 2.95
  86  0.444  0.055  0.215-  93 2.89  84 2.89  75 2.89  88 2.89  85 2.89  87 2.89  59 2.90  52 2.91
                            49 2.91 123 2.92 124 2.94 121 2.94
  87  0.611  0.055  0.215-  96 2.89  88 2.89  93 2.89  98 2.89  97 2.89  86 2.89  58 2.91  64 2.91
                            49 2.91 134 2.92 133 2.94 124 2.94
  88  0.611  0.222  0.214-  87 2.89  86 2.89  85 2.89  97 2.89  49 2.90  91 2.90 102 2.90  50 2.90
                            63 2.90 137 2.90 123 2.92 134 2.93
  89  0.444  0.556  0.214-  80 2.88 127 2.88  94 2.89  55 2.89  79 2.89  56 2.90  54 2.90  95 2.90
                            90 2.90  92 2.91 132 2.92 126 2.95
  90  0.444  0.388  0.214-  76 2.89  79 2.89  51 2.89  85 2.89 127 2.89  56 2.89  91 2.90  53 2.90
                            89 2.90  92 2.91 128 2.91 125 2.95
  91  0.611  0.389  0.215-  92 2.89  85 2.90  90 2.90  88 2.90 102 2.90 101 2.90 137 2.90  53 2.90
                            68 2.90  50 2.91 128 2.91 138 2.91
  92  0.612  0.556  0.214-  91 2.89  67 2.89 127 2.89 101 2.90  54 2.90  53 2.90  95 2.90 106 2.90
                            90 2.91  89 2.91 141 2.91 138 2.91
  93  0.444  0.889  0.215-  86 2.89  87 2.89  84 2.89  94 2.89  83 2.89  96 2.90  59 2.90 131 2.90
                            58 2.91  60 2.91 130 2.93 124 2.95
  94  0.444  0.722  0.214-  89 2.89  83 2.89  93 2.89  80 2.89  95 2.89  96 2.90  60 2.90  57 2.90
                            55 2.90 132 2.91 131 2.91 129 2.92
  95  0.611  0.723  0.214-  96 2.89 105 2.89  94 2.89  57 2.89  72 2.90  92 2.90 141 2.90  89 2.90
                           106 2.90  54 2.90 132 2.91 142 2.94
  96  0.611  0.889  0.214-  98 2.89  87 2.89  95 2.89 105 2.90  94 2.90  93 2.90  71 2.90  58 2.90
                            57 2.90 131 2.91 142 2.93 133 2.95
  97  0.778  0.222  0.215-  98 2.89 100 2.89 103 2.89 102 2.89  87 2.89  88 2.89  62 2.91  64 2.91
                            63 2.91 134 2.92 140 2.93 135 2.94
  98  0.778  0.056  0.215-  96 2.89  97 2.89 100 2.89 105 2.89  87 2.89  99 2.89  61 2.92  64 2.92
                            71 2.92 133 2.93 136 2.93 135 2.94
  99  0.945  0.056  0.215- 105 2.88 100 2.89  73 2.89 108 2.89  98 2.89  74 2.89  40 2.92  61 2.92
                            70 2.92 136 2.93 110 2.94 109 2.94
 100  0.944  0.222  0.215-  78 2.89  99 2.89  97 2.89  98 2.89 103 2.89  73 2.89  61 2.92  39 2.92
                            62 2.92 135 2.93 113 2.94 110 2.94
 101  0.778  0.556  0.215- 104 2.89 102 2.89 107 2.89  92 2.90 106 2.90 138 2.90  91 2.90  66 2.90
                            68 2.91  67 2.91 139 2.93 144 2.93
 102  0.778  0.389  0.214- 103 2.89 104 2.89  97 2.89 101 2.89 137 2.89  91 2.90  65 2.90  88 2.90
                            63 2.90  68 2.91 139 2.93 140 2.94
 103  0.945  0.389  0.215-  78 2.89 102 2.89 100 2.89  77 2.89  97 2.89 104 2.89  44 2.91  62 2.91
                            65 2.91 140 2.93 114 2.93 113 2.94
 104  0.945  0.556  0.215-  77 2.89 101 2.89  82 2.89 102 2.89 107 2.89 103 2.89  43 2.90  66 2.91
                            65 2.91 139 2.92 114 2.94 117 2.94
 105  0.778  0.889  0.215-  99 2.88 108 2.89 106 2.89  98 2.89  95 2.89  96 2.90  70 2.90  71 2.91
                            72 2.91 142 2.92 143 2.93 136 2.94
 106  0.779  0.723  0.215- 108 2.89 105 2.89 107 2.89 141 2.89 101 2.90  69 2.90  92 2.90  95 2.90
                            72 2.91  67 2.91 144 2.93 143 2.94
 107  0.945  0.723  0.215-  82 2.89  81 2.89 106 2.89 108 2.89 101 2.89 104 2.89  48 2.90  69 2.91
                            66 2.91 144 2.92 117 2.93 118 2.94
 108  0.945  0.889  0.215-  74 2.88 106 2.89 105 2.89  99 2.89  81 2.89 107 2.89  47 2.91  70 2.92
                            69 2.92 143 2.93 118 2.93 109 2.93
 109  0.000  0.000  0.325- 143 2.89 110 2.89 111 2.89 136 2.89 112 2.89 118 2.89  74 2.93 108 2.93
                            99 2.94
 110  0.000  0.167  0.325- 136 2.89 109 2.89 113 2.89 116 2.89 135 2.89 111 2.89  73 2.93 100 2.94
                            99 2.94
 111  0.167  0.167  0.325- 109 2.89 116 2.89 125 2.89 112 2.89 122 2.89 110 2.89  73 2.93  74 2.93
                            76 2.94
 112  0.167  0.000  0.325- 118 2.89 121 2.89 111 2.89 109 2.89 122 2.89 119 2.89  74 2.93  81 2.93
                            75 2.94
 113  0.000  0.333  0.325- 140 2.88 115 2.88 135 2.89 114 2.89 110 2.89 116 2.89 100 2.94 103 2.94
                            78 2.94
 114  0.000  0.500  0.324- 139 2.88 115 2.89 140 2.89 120 2.89 113 2.89 117 2.89 103 2.93  77 2.94
                           104 2.94
 115  0.166  0.499  0.322- 113 2.88 116 2.89 114 2.89 126 2.90 129 2.90 120 2.90  78 2.90  80 2.90
                            77 2.91
 116  0.167  0.333  0.325- 115 2.89 126 2.89 111 2.89 110 2.89 113 2.89 125 2.89  73 2.93  79 2.94
                            78 2.95
 117  0.001  0.667  0.324- 120 2.88 139 2.89 144 2.89 119 2.89 114 2.89 118 2.89  82 2.93 107 2.93
                           104 2.94
 118  0.000  0.834  0.324- 144 2.88 112 2.89 119 2.89 109 2.89 143 2.89 117 2.89  81 2.93 108 2.93
                           107 2.94
 119  0.167  0.833  0.324- 130 2.89 117 2.89 121 2.89 120 2.89 118 2.89 112 2.89  81 2.93  84 2.94
                            82 2.94
 120  0.167  0.667  0.324- 117 2.88 114 2.89 119 2.89 129 2.89 130 2.89 115 2.90  83 2.93  82 2.93
                            77 2.93
 121  0.333  0.000  0.325- 123 2.89 124 2.89 112 2.89 122 2.89 119 2.89 130 2.89  75 2.93  84 2.94
                            86 2.94
 122  0.334  0.167  0.325- 125 2.89 123 2.89 121 2.89 111 2.89 112 2.89 128 2.89  75 2.94  76 2.94
                            85 2.95
 123  0.500  0.167  0.323- 124 2.89 121 2.89 122 2.89 134 2.89 137 2.90 128 2.90  86 2.92  85 2.92
                            88 2.92
 124  0.500  0.000  0.324- 131 2.88 123 2.89 134 2.89 121 2.89 130 2.89 133 2.89  87 2.94  86 2.94
                            93 2.95
 125  0.333  0.333  0.325- 128 2.88 126 2.89 122 2.89 111 2.89 127 2.89 116 2.89  79 2.94  76 2.94
                            90 2.95
 126  0.333  0.500  0.324- 127 2.88 125 2.89 116 2.89 115 2.90 129 2.90 132 2.90  79 2.93  80 2.94
                            89 2.95
 127  0.499  0.500  0.320- 126 2.88  89 2.88 132 2.88  90 2.89 125 2.89  92 2.89 128 2.89 141 2.91
                           138 2.92
 128  0.500  0.334  0.322- 125 2.88 122 2.89 127 2.89 123 2.90 137 2.91 138 2.91  91 2.91  90 2.91
                            85 2.92
 129  0.333  0.667  0.323- 120 2.89 126 2.90 130 2.90 132 2.90 115 2.90 131 2.91  80 2.91  83 2.92
                            94 2.92
 130  0.333  0.834  0.324- 119 2.89 121 2.89 124 2.89 131 2.89 120 2.89 129 2.90  84 2.93  83 2.93
                            93 2.93
 131  0.501  0.834  0.322- 133 2.88 124 2.88 142 2.89 130 2.89 132 2.90  93 2.90  96 2.91 129 2.91
                            94 2.91
 132  0.501  0.667  0.322- 127 2.88 141 2.89 142 2.89 129 2.90 131 2.90 126 2.90  95 2.91  94 2.91
                            89 2.92
 133  0.667  0.000  0.324- 131 2.88 142 2.88 134 2.88 135 2.89 136 2.89 124 2.89  98 2.93  87 2.94
                            96 2.95
 134  0.667  0.166  0.323- 133 2.88 124 2.89 137 2.89 135 2.89 123 2.89 140 2.90  87 2.92  97 2.92
                            88 2.93
 135  0.833  0.167  0.325- 140 2.89 133 2.89 136 2.89 113 2.89 134 2.89 110 2.89 100 2.93  98 2.94
                            97 2.94
 136  0.834  0.000  0.324- 142 2.89 110 2.89 135 2.89 143 2.89 109 2.89 133 2.89  99 2.93  98 2.93
                           105 2.94
 137  0.667  0.333  0.322- 134 2.89 140 2.89 102 2.89 123 2.90 139 2.90  91 2.90  88 2.90 138 2.90
                           128 2.91
 138  0.668  0.501  0.322- 144 2.89 101 2.90 139 2.90 141 2.90 137 2.90 128 2.91  91 2.91  92 2.91
                           127 2.92
 139  0.835  0.500  0.323- 114 2.88 117 2.89 140 2.89 138 2.90 137 2.90 144 2.90 104 2.92 101 2.93
                           102 2.93
 140  0.834  0.333  0.324- 113 2.88 135 2.89 114 2.89 139 2.89 137 2.89 134 2.90 103 2.93  97 2.93
                           102 2.94
 141  0.668  0.668  0.322- 143 2.88 142 2.89 132 2.89 106 2.89  95 2.90 138 2.90 144 2.90  92 2.91
                           127 2.91
 142  0.667  0.834  0.323- 133 2.88 136 2.89 141 2.89 131 2.89 132 2.89 143 2.90 105 2.92  96 2.93
                            95 2.94
 143  0.834  0.834  0.324- 141 2.88 109 2.89 136 2.89 144 2.89 118 2.89 142 2.90 108 2.93 105 2.93
                           106 2.94
 144  0.835  0.668  0.323- 118 2.88 117 2.89 138 2.89 143 2.89 141 2.90 139 2.90 107 2.92 106 2.93
                           101 2.93
 145  0.709  0.688  0.471- 153 1.24
 146  0.201  0.564  0.477- 172 1.10 173 1.11 171 1.11 147 1.50
 147  0.299  0.594  0.477- 148 1.40 152 1.42 146 1.50
 148  0.363  0.681  0.462- 165 1.09 147 1.40 149 1.40
 149  0.454  0.709  0.461- 166 1.09 148 1.40 150 1.41
 150  0.483  0.649  0.478- 151 1.40 162 1.41 149 1.41
 151  0.420  0.563  0.495- 167 1.09 150 1.40 152 1.41
 152  0.328  0.534  0.493- 161 1.38 151 1.41 147 1.42
 153  0.627  0.641  0.470- 145 1.24 163 1.38 162 1.39
 154  0.705  0.518  0.461- 182 1.09 155 1.40 159 1.41
 155  0.729  0.452  0.465- 175 1.09 156 1.40 154 1.40
 156  0.667  0.361  0.468- 155 1.40 157 1.42 160 1.50
 157  0.575  0.335  0.466- 164 1.38 158 1.41 156 1.42
 158  0.550  0.400  0.462- 176 1.09 157 1.41 159 1.41
 159  0.614  0.491  0.461- 163 1.40 154 1.41 158 1.41
 160  0.695  0.293  0.476- 179 1.10 177 1.10 178 1.11 156 1.50
 161  0.267  0.447  0.507- 169 1.01 168 1.01 152 1.38
 162  0.576  0.682  0.477- 170 1.02 153 1.39 150 1.41
 163  0.581  0.551  0.461- 174 1.02 153 1.38 159 1.40
 164  0.511  0.246  0.470- 180 1.02 181 1.02 157 1.38
 165  0.342  0.728  0.450- 148 1.09
 166  0.503  0.777  0.448- 149 1.09
 167  0.440  0.518  0.515- 151 1.09
 168  0.204  0.430  0.516- 161 1.01
 169  0.289  0.408  0.527- 161 1.01
 170  0.614  0.749  0.474- 162 1.02
 171  0.163  0.505  0.448- 146 1.11
 172  0.189  0.617  0.460- 146 1.10
 173  0.173  0.546  0.523- 146 1.11
 174  0.515  0.523  0.452- 163 1.02
 175  0.800  0.472  0.466- 155 1.09
 176  0.479  0.379  0.461- 158 1.09
 177  0.673  0.259  0.520- 160 1.10
 178  0.667  0.240  0.441- 160 1.11
 179  0.768  0.324  0.473- 160 1.10
 180  0.530  0.201  0.459- 164 1.02
 181  0.450  0.229  0.453- 164 1.02
 182  0.755  0.588  0.460- 154 1.09
 
  LATTYP: Found a hexagonal cell.
 ALAT       =    17.3505005836
 C/A-ratio  =     1.2727759369
  
  Lattice vectors:
  
 A1 = (  17.3505005835,   0.0000000000,   0.0000000000)
 A2 = (  -8.6752502919,  15.0259742739,   0.0000000000)
 A3 = (   0.0000000000,   0.0000000000,  22.0832996368)


Analysis of symmetry for initial positions (statically):
=====================================================================
 Subroutine PRICEL returns:
 Original cell was already a primitive cell.
 

 Routine SETGRP: Setting up the symmetry group for a 
 hexagonal supercell.


 Subroutine GETGRP returns: Found  1 space group operations
 (whereof  1 operations were pure point group operations)
 out of a pool of 24 trial point group operations.


The static configuration has the point symmetry C_1 .


Analysis of symmetry for dynamics (positions and initial velocities):
=====================================================================
 Subroutine PRICEL returns:
 Original cell was already a primitive cell.
 

 Routine SETGRP: Setting up the symmetry group for a 
 hexagonal supercell.


 Subroutine GETGRP returns: Found  1 space group operations
 (whereof  1 operations were pure point group operations)
 out of a pool of 24 trial point group operations.


The dynamic configuration has the point symmetry C_1 .


Analysis of constrained symmetry for selective dynamics:
=====================================================================
 Subroutine PRICEL returns:
 Original cell was already a primitive cell.
 

 Routine SETGRP: Setting up the symmetry group for a 
 hexagonal supercell.


 Subroutine GETGRP returns: Found  1 space group operations
 (whereof  1 operations were pure point group operations)
 out of a pool of 24 trial point group operations.


The constrained configuration has the point symmetry C_1 .


 Subroutine INISYM returns: Found  1 space group operations
 (whereof  1 operations are pure point group operations),
 and found     1 'primitive' translations

 
 
 KPOINTS: K-POINTS                                

Automatic generation of k-mesh.
Space group operators:
 irot       det(A)        alpha          n_x          n_y          n_z        tau_x        tau_y        tau_z
    1     1.000000     0.000000     1.000000     0.000000     0.000000     0.000000     0.000000     0.000000
 
 Subroutine IBZKPT returns following result:
 ===========================================
 
 Found      5 irreducible k-points:
 
 Following reciprocal coordinates:
            Coordinates               Weight
  0.000000  0.000000  0.000000      1.000000
  0.333333  0.000000  0.000000      2.000000
  0.000000  0.333333  0.000000      2.000000
  0.333333  0.333333  0.000000      2.000000
 -0.333333  0.333333  0.000000      2.000000
 
 Following cartesian coordinates:
            Coordinates               Weight
  0.000000  0.000000  0.000000      1.000000
  0.019212  0.011092  0.000000      2.000000
  0.000000  0.022184  0.000000      2.000000
  0.019212  0.033276  0.000000      2.000000
 -0.019212  0.011092  0.000000      2.000000
 


--------------------------------------------------------------------------------------------------------




 Dimension of arrays:
   k-points           NKPTS =      5   k-points in BZ     NKDIM =      5   number of bands    NBANDS=   1056
   number of dos      NEDOS =    301   number of ions     NIONS =    182
   non local maximal  LDIM  =      6   non local SUM 2l+1 LMDIM =     18
   total plane-waves  NPLWV = 972000
   max r-space proj   IRMAX =   2084   max aug-charges    IRDMAX=   8500
   dimension x,y,z NGX =    90 NGY =   90 NGZ =  120
   dimension x,y,z NGXF=   180 NGYF=  180 NGZF=  240
   support grid    NGXF=   180 NGYF=  180 NGZF=  240
   ions per type =             144   1  15   4  18
   NGX,Y,Z   is equivalent  to a cutoff of   8.62,  8.62,  9.03 a.u.
   NGXF,Y,Z  is equivalent  to a cutoff of  17.25, 17.25, 18.07 a.u.

 SYSTEM =  x                                       
 POSCAR =  Ag  O  C  N  H                          

 Startparameter for this run:
   NWRITE =      0    write-flag & timer
   PREC   = normal    normal or accurate (medium, high low for compatibility)
   ISTART =      0    job   : 0-new  1-cont  2-samecut
   ICHARG =      2    charge: 1-file 2-atom 10-const
   ISPIN  =      1    spin polarized calculation?
   LNONCOLLINEAR =      F non collinear calculations
   LSORBIT =      F    spin-orbit coupling
   INIWAV =      1    electr: 0-lowe 1-rand  2-diag
   LASPH  =      F    aspherical Exc in radial PAW
   METAGGA=      F    non-selfconsistent MetaGGA calc.

 Electronic Relaxation 1
   ENCUT  =  450.0 eV  33.07 Ry    5.75 a.u.  30.01 30.01 38.20*2*pi/ulx,y,z
   ENINI  =  450.0     initial cutoff
   ENAUG  =  644.9 eV  augmentation charge cutoff
   NELM   =     50;   NELMIN=  5; NELMDL= -7     # of ELM steps 
   EDIFF  = 0.1E-04   stopping-criterion for ELM
   LREAL  =      T    real-space projection
   NLSPLINE    = F    spline interpolate recip. space projectors
   LCOMPAT=      F    compatible to vasp.4.4
   GGA_COMPAT  = T    GGA compatible to vasp.4.4-vasp.4.6
   LMAXPAW     = -100 max onsite density
   LMAXMIX     =    2 max onsite mixed and CHGCAR
   VOSKOWN=      0    Vosko Wilk Nusair interpolation
   ROPT   =   -0.00050  -0.00050  -0.00050  -0.00050
   ROPT   =   -0.00050
 Ionic relaxation
   EDIFFG = -.2E-01   stopping-criterion for IOM
   NSW    =    300    number of steps for IOM
   NBLOCK =      1;   KBLOCK =    300    inner block; outer block 
   IBRION =      2    ionic relax: 0-MD 1-quasi-New 2-CG
   NFREE  =      2    steps in history (QN), initial steepest desc. (CG)
   ISIF   =      2    stress and relaxation
   IWAVPR =     11    prediction:  0-non 1-charg 2-wave 3-comb
   ISYM   =      2    0-nonsym 1-usesym 2-fastsym
   LCORR  =      T    Harris-Foulkes like correction to forces

   POTIM  = 0.1500    time-step for ionic-motion
   TEIN   =    0.0    initial temperature
   TEBEG  =    0.0;   TEEND  =   0.0 temperature during run
   SMASS  =  -3.00    Nose mass-parameter (am)
   estimated Nose-frequenzy (Omega)   =  0.10E-29 period in steps =****** mass=  -0.688E-26a.u.
   SCALEE = 1.0000    scale energy and forces
   NPACO  =    256;   APACO  = 16.0  distance and # of slots for P.C.
   PSTRESS=    0.0 pullay stress

  Mass of Ions in am
   POMASS = 107.87 16.00 12.01 14.00  1.00
  Ionic Valenz
   ZVAL   =  11.00  6.00  4.00  5.00  1.00
  Atomic Wigner-Seitz radii
   RWIGS  =  -1.00 -1.00 -1.00 -1.00 -1.00
  virtual crystal weights 
   VCA    =   1.00  1.00  1.00  1.00  1.00
   NELECT =    1688.0000    total number of electrons
   NUPDOWN=      -1.0000    fix difference up-down

 DOS related values:
   EMIN   =  10.00;   EMAX   =-10.00  energy-range for DOS
   EFERMI =   0.00
   ISMEAR =     0;   SIGMA  =   0.03  broadening in eV -4-tet -1-fermi 0-gaus

 Electronic relaxation 2 (details)
   IALGO  =     68    algorithm
   LDIAG  =      T    sub-space diagonalisation (order eigenvalues)
   LSUBROT=      F    optimize rotation matrix (better conditioning)
   TURBO    =      0    0=normal 1=particle mesh
   IRESTART =      0    0=no restart 2=restart with 2 vectors
   NREBOOT  =      0    no. of reboots
   NMIN     =      0    reboot dimension
   EREF     =   0.00    reference energy to select bands
   IMIX   =      4    mixing-type and parameters
     AMIX     =   0.40;   BMIX     =  1.00
     AMIX_MAG =   1.60;   BMIX_MAG =  1.00
     AMIN     =   0.10
     WC   =   100.;   INIMIX=   1;  MIXPRE=   1;  MAXMIX= -45

 Intra band minimization:
   WEIMIN = 0.0010     energy-eigenvalue tresh-hold
   EBREAK =  0.24E-08  absolut break condition
   DEPER  =   0.30     relativ break condition  

   TIME   =   0.40     timestep for ELM

  volume/ion in A,a.u.               =      31.63       213.47
  Fermi-wavevector in a.u.,A,eV,Ry     =   1.087576  2.055220 16.093251  1.182821
  Thomas-Fermi vector in A             =   2.223738
 
 Write flags
   LWAVE        =      F    write WAVECAR
   LDOWNSAMPLE  =      F    k-point downsampling of WAVECAR
   LCHARG       =      F    write CHGCAR
   LVTOT        =      F    write LOCPOT, total local potential
   LVHAR        =      F    write LOCPOT, Hartree potential only
   LELF         =      F    write electronic localiz. function (ELF)
   LORBIT       =      0    0 simple, 1 ext, 2 COOP (PROOUT), +10 PAW based schemes


 Dipole corrections
   LMONO  =      F    monopole corrections only (constant potential shift)
   LDIPOL =      T    correct potential (dipole corrections)
   IDIPOL =      3    1-x, 2-y, 3-z, 4-all directions 
   EPSILON=  1.0000000 bulk dielectric constant

 Exchange correlation treatment:
   GGA     =    PE    GGA type
   LEXCH   =     8    internal setting for exchange type
   VOSKOWN=      0    Vosko Wilk Nusair interpolation
   LHFCALC =     F    Hartree Fock is set to
   LHFONE  =     F    Hartree Fock one center treatment
   AEXX    =    0.0000 exact exchange contribution

 Linear response parameters
   LEPSILON=     F    determine dielectric tensor
   LRPA    =     F    only Hartree local field effects (RPA)
   LNABLA  =     F    use nabla operator in PAW spheres
   LVEL    =     F    velocity operator in full k-point grid
   LINTERFAST=   F  fast interpolation
   KINTER  =     0    interpolate to denser k-point grid
   CSHIFT  =0.1000    complex shift for real part using Kramers Kronig
   OMEGAMAX=  -1.0    maximum frequency
   DEG_THRESHOLD= 0.2000000E-02 threshold for treating states as degnerate
   RTIME   =   -0.100 relaxation time in fs
  (WPLASMAI=    0.000 imaginary part of plasma frequency in eV, 0.658/RTIME)
   DFIELD  = 0.0000000 0.0000000 0.0000000 field for delta impulse in time
 
 Orbital magnetization related:
   ORBITALMAG=     F  switch on orbital magnetization
   LCHIMAG   =     F  perturbation theory with respect to B field
   DQ        =  0.001000  dq finite difference perturbation B field
   LLRAUG    =     F  two centre corrections for induced B field



--------------------------------------------------------------------------------------------------------


 conjugate gradient relaxation of ions
   using selective dynamics as specified on POSCAR
 charge density and potential will be updated during run
 non-spin polarized calculation
 RMM-DIIS sequential band-by-band and
  variant of blocked Davidson during initial phase
 perform sub-space diagonalisation
    before iterative eigenvector-optimisation
 modified Broyden-mixing scheme, WC =      100.0
 initial mixing is a Kerker type mixing with AMIX =  0.4000 and BMIX =      1.0000
 Hartree-type preconditioning will be used
 using additional bands          212
 real space projection scheme for non local part
 use partial core corrections
 calculate Harris-corrections to forces 
   (improved forces if not selfconsistent)
 use gradient corrections 
 use of overlap-Matrix (Vanderbilt PP)
 Gauss-broadening in eV      SIGMA  =   0.03


--------------------------------------------------------------------------------------------------------


  energy-cutoff  :      450.00
  volume of cell :     5757.30
      direct lattice vectors                 reciprocal lattice vectors
    17.350500584  0.000000000  0.000000000     0.057635225  0.033275713  0.000000000
    -8.675250292 15.025974274  0.000000000     0.000000000  0.066551425  0.000000000
     0.000000000  0.000000000 22.083299637     0.000000000  0.000000000  0.045283088

  length of vectors
    17.350500584 17.350500584 22.083299637     0.066551425  0.066551425  0.045283088


 
 k-points in units of 2pi/SCALE and weight: K-POINTS                                
   0.00000000  0.00000000  0.00000000       0.111
   0.01921174  0.01109190  0.00000000       0.222
   0.00000000  0.02218381  0.00000000       0.222
   0.01921174  0.03327571  0.00000000       0.222
  -0.01921174  0.01109190  0.00000000       0.222
 
 k-points in reciprocal lattice and weights: K-POINTS                                
   0.00000000  0.00000000  0.00000000       0.111
   0.33333333  0.00000000  0.00000000       0.222
   0.00000000  0.33333333  0.00000000       0.222
   0.33333333  0.33333333  0.00000000       0.222
  -0.33333333  0.33333333  0.00000000       0.222
 
 position of ions in fractional coordinates (direct lattice) 
   0.00000000  0.00000000  0.00000000
   1.00000000  0.16666667  0.00000000
   0.16666667  0.16666667  0.00000000
   0.16666667  0.00000000  0.00000000
   0.00000000  0.33333333  0.00000000
   0.00000000  0.50000000  0.00000000
   0.16666667  0.50000000  0.00000000
   0.16666667  0.33333333  0.00000000
   0.00000000  0.66666667  0.00000000
   1.00000000  0.83333333  0.00000000
   0.16666667  0.83333333  0.00000000
   0.16666667  0.66666667  0.00000000
   0.33333333  0.00000000  0.00000000
   0.33333333  0.16666667  0.00000000
   0.50000000  0.16666667  0.00000000
   0.50000000  0.00000000  0.00000000
   0.33333333  0.33333333  0.00000000
   0.33333333  0.50000000  0.00000000
   0.50000000  0.50000000  0.00000000
   0.50000000  0.33333333  0.00000000
   0.33333333  0.66666667  0.00000000
   0.33333333  0.83333333  0.00000000
   0.50000000  0.83333333  0.00000000
   0.50000000  0.66666667  0.00000000
   0.66666667  0.00000000  0.00000000
   0.66666667  0.16666667  0.00000000
   0.83333333  0.16666667  0.00000000
   0.83333333  0.00000000  0.00000000
   0.66666667  0.33333333  0.00000000
   0.66666667  0.50000000  0.00000000
   0.83333333  0.50000000  0.00000000
   0.83333333  0.33333333  0.00000000
   0.66666667  0.66666667  0.00000000
   0.66666667  0.83333333  0.00000000
   0.83333333  0.83333333  0.00000000
   0.83333333  0.66666667  0.00000000
   0.22222334  0.11111000  0.10692000
   0.22222334  0.27777666  0.10692000
   0.05555666  0.27777666  0.10692000
   0.05555666  0.11111000  0.10692000
   0.22222334  0.44444333  0.10692000
   0.22222334  0.61110999  0.10692000
   0.05555666  0.61110999  0.10692000
   0.05555666  0.44444333  0.10692000
   0.22222334  0.77777667  0.10692000
   0.22222334  0.94444333  0.10692000
   0.05555666  0.94444333  0.10692000
   0.05555666  0.77777667  0.10692000
   0.55555667  0.11111000  0.10692000
   0.55555667  0.27777666  0.10692000
   0.38889000  0.27777666  0.10692000
   0.38889000  0.11111000  0.10692000
   0.55555667  0.44444333  0.10692000
   0.55555667  0.61110999  0.10692000
   0.38889000  0.61110999  0.10692000
   0.38889000  0.44444333  0.10692000
   0.55555667  0.77777667  0.10692000
   0.55555667  0.94444333  0.10692000
   0.38889000  0.94444333  0.10692000
   0.38889000  0.77777667  0.10692000
   0.88889001  0.11111000  0.10692000
   0.88889001  0.27777666  0.10692000
   0.72222333  0.27777666  0.10692000
   0.72222333  0.11111000  0.10692000
   0.88889001  0.44444333  0.10692000
   0.88889001  0.61110999  0.10692000
   0.72222333  0.61110999  0.10692000
   0.72222333  0.44444333  0.10692000
   0.88889001  0.77777667  0.10692000
   0.88889001  0.94444333  0.10692000
   0.72222333  0.94444333  0.10692000
   0.72222333  0.77777667  0.10692000
   0.11114221  0.22215447  0.21541170
   0.11124627  0.05565407  0.21540803
   0.27778699  0.05556971  0.21520347
   0.27760117  0.22207800  0.21513900
   0.11111420  0.55565143  0.21446845
   0.11090568  0.38838786  0.21466113
   0.27759834  0.38875377  0.21521296
   0.27781122  0.55552777  0.21483577
   0.11147624  0.88913376  0.21530834
   0.11127216  0.72241330  0.21467411
   0.27775157  0.72225617  0.21474028
   0.27773487  0.88901736  0.21489712
   0.44419823  0.22205007  0.21449207
   0.44422030  0.05531725  0.21459878
   0.61109768  0.05547167  0.21475741
   0.61095433  0.22191808  0.21425655
   0.44399422  0.55588471  0.21402413
   0.44385462  0.38849836  0.21397663
   0.61115867  0.38906267  0.21452362
   0.61157056  0.55585109  0.21404361
   0.44435418  0.88909388  0.21453819
   0.44439841  0.72245918  0.21444165
   0.61139688  0.72283035  0.21417057
   0.61147974  0.88928941  0.21436911
   0.77791748  0.22216064  0.21477758
   0.77783507  0.05562449  0.21518723
   0.94455937  0.05570390  0.21517970
   0.94440091  0.22210031  0.21528301
   0.77847399  0.55590158  0.21468319
   0.77816942  0.38899479  0.21446477
   0.94466064  0.38883378  0.21472079
   0.94480428  0.55575540  0.21459542
   0.77845219  0.88934543  0.21488347
   0.77866378  0.72290224  0.21459798
   0.94513896  0.72274900  0.21486353
   0.94499676  0.88937731  0.21532501
   0.00021691  0.00029573  0.32465805
   0.00003635  0.16665944  0.32468011
   0.16683427  0.16676683  0.32464780
   0.16680028  0.00011056  0.32464641
   0.00005033  0.33328761  0.32459060
   0.00027667  0.50001024  0.32394132
   0.16635826  0.49940238  0.32225518
   0.16668833  0.33325426  0.32469081
   0.00059146  0.66692543  0.32406289
   0.00048933  0.83371705  0.32439502
   0.16701895  0.83348334  0.32442130
   0.16669750  0.66672957  0.32360985
   0.33342320  0.00022658  0.32455978
   0.33351504  0.16684349  0.32464055
   0.49993688  0.16661869  0.32298318
   0.50001533  0.00032342  0.32440197
   0.33343530  0.33329915  0.32456308
   0.33333458  0.49965714  0.32435082
   0.49942094  0.50047441  0.32046756
   0.49997467  0.33395164  0.32237396
   0.33327101  0.66655173  0.32302791
   0.33339778  0.83356079  0.32384904
   0.50061012  0.83449499  0.32217468
   0.50056148  0.66721847  0.32229290
   0.66681533  0.00032945  0.32446583
   0.66660561  0.16647724  0.32325578
   0.83340295  0.16674563  0.32462019
   0.83359246  0.00032976  0.32449711
   0.66726214  0.33341187  0.32160422
   0.66792289  0.50112609  0.32214633
   0.83454000  0.50026378  0.32340689
   0.83397062  0.33330605  0.32372363
   0.66753427  0.66801889  0.32155133
   0.66711528  0.83426404  0.32339533
   0.83385759  0.83394378  0.32431450
   0.83455433  0.66759379  0.32349350
   0.70949831  0.68765668  0.47114202
   0.20145242  0.56400811  0.47733907
   0.29880315  0.59358922  0.47668491
   0.36341670  0.68056645  0.46161628
   0.45435328  0.70873352  0.46072796
   0.48345716  0.64913135  0.47750606
   0.41999329  0.56268150  0.49540059
   0.32836098  0.53372959  0.49330152
   0.62744546  0.64147737  0.46992614
   0.70495236  0.51788959  0.46058077
   0.72878882  0.45178954  0.46452415
   0.66684330  0.36093477  0.46801053
   0.57513698  0.33471427  0.46555611
   0.55007207  0.40008106  0.46152457
   0.61391688  0.49134797  0.46083108
   0.69520397  0.29278278  0.47623863
   0.26740959  0.44674759  0.50711786
   0.57567090  0.68162060  0.47724204
   0.58110111  0.55062584  0.46080162
   0.51060279  0.24579792  0.47017279
   0.34202240  0.72836696  0.45025996
   0.50305766  0.77709197  0.44830005
   0.44003742  0.51764446  0.51485566
   0.20364708  0.42994474  0.51578918
   0.28886483  0.40824796  0.52678560
   0.61449160  0.74889291  0.47371388
   0.16294082  0.50473291  0.44848073
   0.18949050  0.61664254  0.46032049
   0.17332546  0.54606314  0.52349024
   0.51482713  0.52269198  0.45215668
   0.79955238  0.47243852  0.46562265
   0.47936773  0.37946198  0.46130190
   0.67314465  0.25899988  0.52042925
   0.66689230  0.24046031  0.44098193
   0.76797766  0.32380465  0.47336085
   0.52962712  0.20101431  0.45866278
   0.44965748  0.22894977  0.45313355
   0.75483267  0.58815687  0.46003578
 
 position of ions in cartesian coordinates  (Angst):
   0.00000000  0.00000000  0.00000000
  15.90462553  2.50432905  0.00000000
   1.44587505  2.50432905  0.00000000
   2.89175010  0.00000000  0.00000000
  -2.89175010  5.00865809  0.00000000
  -4.33762515  7.51298714  0.00000000
  -1.44587505  7.51298714  0.00000000
  -0.00000000  5.00865809  0.00000000
  -5.78350019 10.01731618  0.00000000
  10.12112534 12.52164523  0.00000000
  -4.33762515 12.52164523  0.00000000
  -2.89175010 10.01731618  0.00000000
   5.78350019  0.00000000  0.00000000
   4.33762515  2.50432905  0.00000000
   7.22937524  2.50432905  0.00000000
   8.67525029  0.00000000  0.00000000
   2.89175010  5.00865809  0.00000000
   1.44587505  7.51298714  0.00000000
   4.33762515  7.51298714  0.00000000
   5.78350019  5.00865809  0.00000000
  -0.00000000 10.01731618  0.00000000
  -1.44587505 12.52164523  0.00000000
   1.44587505 12.52164523  0.00000000
   2.89175010 10.01731618  0.00000000
  11.56700039  0.00000000  0.00000000
  10.12112534  2.50432905  0.00000000
  13.01287544  2.50432905  0.00000000
  14.45875049  0.00000000  0.00000000
   8.67525029  5.00865809  0.00000000
   7.22937524  7.51298714  0.00000000
  10.12112534  7.51298714  0.00000000
  11.56700039  5.00865809  0.00000000
   5.78350019 10.01731618  0.00000000
   4.33762515 12.52164523  0.00000000
   7.22937524 12.52164523  0.00000000
   8.67525029 10.01731618  0.00000000
   2.89177914  1.66953603  2.36114631
   1.44590417  4.17386493  2.36114631
  -1.44584609  4.17386493  2.36114631
   0.00002887  1.66953603  2.36114631
   0.00002904  6.67819412  2.36114631
  -1.44584592  9.18252302  2.36114631
  -4.33759619  9.18252302  2.36114631
  -2.89172122  6.67819412  2.36114631
  -2.89172106 11.68685221  2.36114631
  -4.33759602 14.19118111  2.36114631
  -7.22934629 14.19118111  2.36114631
  -5.78347132 11.68685221  2.36114631
   8.67527933  1.66953603  2.36114631
   7.22940437  4.17386493  2.36114631
   4.33765410  4.17386493  2.36114631
   5.78352907  1.66953603  2.36114631
   5.78352924  6.67819412  2.36114631
   4.33765427  9.18252302  2.36114631
   1.44590401  9.18252302  2.36114631
   2.89177897  6.67819412  2.36114631
   2.89177914 11.68685221  2.36114631
   1.44590417 14.19118111  2.36114631
  -1.44584609 14.19118111  2.36114631
   0.00002887 11.68685221  2.36114631
  14.45877953  1.66953603  2.36114631
  13.01290456  4.17386493  2.36114631
  10.12115430  4.17386493  2.36114631
  11.56702926  1.66953603  2.36114631
  11.56702943  6.67819412  2.36114631
  10.12115447  9.18252302  2.36114631
   7.22940420  9.18252302  2.36114631
   8.67527917  6.67819412  2.36114631
   8.67527933 11.68685221  2.36114631
   7.22940437 14.19118111  2.36114631
   4.33765410 14.19118111  2.36114631
   5.78352907 11.68685221  2.36114631
   0.00112742  3.33808735  4.75700113
   1.44736550  0.83625667  4.75692003
   4.33766222  0.83498909  4.75240272
   2.88993694  3.33693833  4.75097903
  -2.89252822  8.34920404  4.73617097
  -1.44509289  5.83590603  4.74042603
   1.44393387  5.84140411  4.75261224
   0.00082123  8.34734597  4.74428262
  -5.77928936 13.36010105  4.75471859
  -4.33648852 10.85496369  4.74071266
  -1.44662436 10.85260265  4.74217391
  -2.89360910 13.35835201  4.74563752
   5.78072176  3.33651867  4.73669265
   7.22755350  0.83119562  4.73904912
  10.12161999  0.83351591  4.74255220
   8.67516850  3.33453538  4.73149168
   2.88108299  8.35270935  4.72635902
   4.33077942  5.83756635  4.72531004
   7.22869275  5.84604566  4.73738934
   5.78890800  8.35220421  4.72678914
  -0.00334437 13.35950172  4.73771113
   1.44302070 10.85565301  4.73557928
   4.33730771 10.86123026  4.72959294
   2.89467137 13.36243980  4.73397732
  11.56995854  3.33818014  4.74299761
  13.01327149  0.83581213  4.75204411
  15.90533259  0.83700537  4.75187769
  14.45905271  3.33727358  4.75415927
   8.68432804  8.35296280  4.74091315
  10.12700174  5.84502570  4.73608978
  13.01710463  5.84260632  4.74174357
  11.57150992  8.35076637  4.73897500
   5.79124099 13.36328161  4.74533609
   7.23884842 10.86231053  4.73903156
  10.12860560 10.86000781  4.74489575
   8.68059596 13.36376065  4.75508676
   0.00119802  0.00444363  7.16952094
  -1.44518165  2.50422048  7.17000809
   1.44791412  2.50583409  7.16929470
   2.89310910  0.00166134  7.16926396
  -2.89048024  5.00797106  7.16803148
  -4.33291360  7.51314105  7.15369314
  -1.44604157  7.50400737  7.11645770
   0.00106180  5.00747001  7.17024438
  -5.77548294 10.02120441  7.15637801
  -7.22421394 12.52741100  7.16371253
  -4.33281424 12.52389924  7.16429272
  -2.89176074 10.01826133  7.14637319
   5.78309382  0.00340458  7.16735089
   4.33924397  2.50698592  7.16913449
   7.22869620  2.50360818  7.13253444
   8.67271060  0.00485963  7.16386580
   2.89381581  5.00814442  7.16742369
   1.44887111  7.50783538  7.16273629
   4.32346261  7.52011561  7.07698123
   5.77769682  5.01794872  7.11908076
  -0.00008420 10.01558912  7.13352207
  -1.44673002 12.52506294  7.15165545
   1.44638328 12.53910026  7.11467990
   2.89670499 10.02560763  7.11729059
  11.56672168  0.00495026  7.16527604
  10.12170937  2.50148271  7.13855426
  13.01339833  2.50551558  7.16868486
  14.46038573  0.00495495  7.16596694
   8.68490074  5.00983816  7.10208227
   7.24140220  7.52990776  7.11405391
  10.13977325  7.51695071  7.14189127
  11.57829427  5.00824821  7.14888593
   5.78682262 10.03763466  7.10091427
   4.33733468 12.53563003  7.14163607
   7.23317559 12.53081779  7.16193427
   8.68839224 10.03124708  7.14380399
   6.34455702 10.33271159 10.40437033
  -1.39761121  8.47477140 10.54122168
   0.03484916  8.91925630 10.52677573
   0.40137736 10.22617400 10.19401064
   1.73481609 10.64941169 10.17439361
   2.75684678  9.75383101 10.54490930
   2.40569091  8.45483779 10.94007968
   1.06698957  8.01980704 10.89372523
   5.32151611  9.63882251 10.37751980
   7.73845446  7.78179562 10.17114314
   8.72546349  6.78857801 10.25822599
   8.43886560  5.42339656 10.33521671
   7.07518432  5.02940807 10.28101508
   6.07322242  6.01160776 10.19198527
   6.38919851  7.38298197 10.17667091
   9.52217307  4.39934650 10.51692034
   0.76404312  6.71281786 11.19883565
   4.07494896 10.24201358 10.53907907
   5.30557823  8.27368972 10.17602036
   6.72685553  3.69335320 10.38296669
  -0.38450580 10.94442323  9.94322566
   1.98683480 11.67656397  9.89994444
   3.14417425  7.77811233 11.36971183
  -0.19649952  6.46033862 11.39032692
   1.47029607  6.13432338 11.63316425
   4.16490344 11.25284567 10.46116558
  -1.55157959  7.58410373  9.90393435
  -2.06177334  9.26565490 10.16539527
  -1.72995084  8.20513068 11.56039174
   4.39802460  7.85395621  9.98511144
   9.77411166  7.09884909 10.28248442
   5.02534237  5.70178599 10.18706811
   9.43250798  3.89172547 11.49279502
   9.48486193  3.61315036  9.73833602
  10.51571050  4.86548041 10.45336954
   7.44544623  3.02043578 10.12878763
   5.81558576  3.44019332 10.00668388
   7.99431657  8.83763006 10.15910808
 


--------------------------------------------------------------------------------------------------------


 k-point  1 :   0.0000 0.0000 0.0000  plane waves:  124805
 k-point  2 :   0.3333 0.0000 0.0000  plane waves:  124786
 k-point  3 :   0.0000 0.3333 0.0000  plane waves:  124786
 k-point  4 :   0.3333 0.3333 0.0000  plane waves:  124836
 k-point  5 :  -0.3333 0.3333 0.0000  plane waves:  124786

 maximum and minimum number of plane-waves per node :    124836   124786

 maximum number of plane-waves:    124836
 maximum index in each direction: 
   IXMAX=   30   IYMAX=   30   IZMAX=   38
   IXMIN=  -30   IYMIN=  -30   IZMIN=  -38


 serial   3D FFT for wavefunctions
 parallel 3D FFT for charge:
    minimum data exchange during FFTs selected (reduces bandwidth)


 total amount of memory used by VASP MPI-rank0   375321. kBytes
=======================================================================

   base      :      30000. kBytes
   nonlr-proj:      55060. kBytes
   fftplans  :       9705. kBytes
   grid      :      52925. kBytes
   one-center:       2830. kBytes
   wavefun   :     224801. kBytes
 
     INWAV:  cpu time    0.0000: real time    0.0004
 Broyden mixing: mesh for mixing (old mesh)
   NGX = 61   NGY = 61   NGZ = 77
  (NGX  =180   NGY  =180   NGZ  =240)
  gives a total of 286517 points

 initial charge density was supplied:
 charge density of overlapping atoms calculated
 number of electron    1688.0000000 magnetization 
 keeping initial charge density in first step


--------------------------------------------------------------------------------------------------------


 Maximum index for non-local projection operator         2038
 Maximum index for augmentation-charges          451 (set IRDMAX)


--------------------------------------------------------------------------------------------------------


 First call to EWALD:  gamma=   0.099
 Maximum number of real-space cells 3x 3x 2
 Maximum number of reciprocal cells 3x 3x 3

    FEWALD:  cpu time    0.0069: real time    0.0069


--------------------------------------- Iteration      1(   1)  ---------------------------------------


    POTLOK:  cpu time    0.1641: real time    0.1822
    SETDIJ:  cpu time    0.0185: real time    0.0216
     EDDAV:  cpu time   70.7694: real time   70.8464
       DOS:  cpu time    0.0053: real time    0.0084
    --------------------------------------------
      LOOP:  cpu time   70.9574: real time   71.0588

 eigenvalue-minimisations  : 10560
 total energy-change (2. order) : 0.1025348E+05  (-0.7421874E+05)
 number of electron    1688.0000000 magnetization 
 augmentation part     1688.0000000 magnetization 

 DIPCOR: dipole corrections for dipol
 direction  3 min pos   169,
 dipolmoment           0.000000      0.000000     -0.003987 electrons x Angstroem
 Tr[quadrupol]    -89609.903838

 energy correction for charged system         0.000000 eV
 dipol+quadrupol energy correction           -0.000000 eV
 added-field ion interaction         -0.091841 eV  (added to PSCEN)


 Free energy of the ion-electron system (eV)
  ---------------------------------------------------
  alpha Z        PSCENC =      3399.80449282
  Ewald energy   TEWEN  =    370062.60712347
  -Hartree energ DENC   =   -528127.23910377
  -exchange      EXHF   =         0.00000000
  -V(xc)+E(xc)   XCENC  =     -1184.43657756
  PAW double counting   =    147331.07309591  -140706.08257636
  entropy T*S    EENTRO =        -0.02921958
  eigenvalues    EBANDS =      6189.74298392
  atomic energy  EATOM  =    153288.04140334
  Solvation  Ediel_sol  =         0.00000000
  ---------------------------------------------------
  free energy    TOTEN  =     10253.48162217 eV

  energy without entropy =    10253.51084175  energy(sigma->0) =    10253.49623196


--------------------------------------------------------------------------------------------------------




--------------------------------------- Iteration      1(   2)  ---------------------------------------


     EDDAV:  cpu time   74.7325: real time   74.7732
       DOS:  cpu time    0.0028: real time    0.0028
    --------------------------------------------
      LOOP:  cpu time   74.7352: real time   74.7760

 eigenvalue-minimisations  : 11280
 total energy-change (2. order) :-0.1040799E+05  (-0.9851027E+04)
 number of electron    1688.0000000 magnetization 
 augmentation part     1688.0000000 magnetization 

 DIPCOR: dipole corrections for dipol
 direction  3 min pos   169,
 dipolmoment           0.000000      0.000000     -0.003987 electrons x Angstroem
 Tr[quadrupol]    -89609.903838

 energy correction for charged system         0.000000 eV
 dipol+quadrupol energy correction           -0.000000 eV
 added-field ion interaction         -0.091841 eV  (added to PSCEN)


 Free energy of the ion-electron system (eV)
  ---------------------------------------------------
  alpha Z        PSCENC =      3399.80449282
  Ewald energy   TEWEN  =    370062.60712347
  -Hartree energ DENC   =   -528127.23910377
  -exchange      EXHF   =         0.00000000
  -V(xc)+E(xc)   XCENC  =     -1184.43657756
  PAW double counting   =    147331.07309591  -140706.08257636
  entropy T*S    EENTRO =        -0.02488452
  eigenvalues    EBANDS =     -4218.25587582
  atomic energy  EATOM  =    153288.04140334
  Solvation  Ediel_sol  =         0.00000000
  ---------------------------------------------------
  free energy    TOTEN  =      -154.51290251 eV

  energy without entropy =     -154.48801799  energy(sigma->0) =     -154.50046025


--------------------------------------------------------------------------------------------------------




--------------------------------------- Iteration      1(   3)  ---------------------------------------


     EDDAV:  cpu time   79.9229: real time   79.9687
       DOS:  cpu time    0.0046: real time    0.0046
    --------------------------------------------
      LOOP:  cpu time   79.9275: real time   79.9733

 eigenvalue-minimisations  : 12240
 total energy-change (2. order) :-0.5019423E+03  (-0.4907894E+03)
 number of electron    1688.0000000 magnetization 
 augmentation part     1688.0000000 magnetization 

 DIPCOR: dipole corrections for dipol
 direction  3 min pos   169,
 dipolmoment           0.000000      0.000000     -0.003987 electrons x Angstroem
 Tr[quadrupol]    -89609.903838

 energy correction for charged system         0.000000 eV
 dipol+quadrupol energy correction           -0.000000 eV
 added-field ion interaction         -0.091841 eV  (added to PSCEN)


 Free energy of the ion-electron system (eV)
  ---------------------------------------------------
  alpha Z        PSCENC =      3399.80449282
  Ewald energy   TEWEN  =    370062.60712347
  -Hartree energ DENC   =   -528127.23910377
  -exchange      EXHF   =         0.00000000
  -V(xc)+E(xc)   XCENC  =     -1184.43657756
  PAW double counting   =    147331.07309591  -140706.08257636
  entropy T*S    EENTRO =        -0.04816994
  eigenvalues    EBANDS =     -4720.17484720
  atomic energy  EATOM  =    153288.04140334
  Solvation  Ediel_sol  =         0.00000000
  ---------------------------------------------------
  free energy    TOTEN  =      -656.45515930 eV

  energy without entropy =     -656.40698936  energy(sigma->0) =     -656.43107433


--------------------------------------------------------------------------------------------------------




--------------------------------------- Iteration      1(   4)  ---------------------------------------


     EDDAV:  cpu time   83.6213: real time   84.2465
       DOS:  cpu time    0.0042: real time    0.0042
    --------------------------------------------
      LOOP:  cpu time   83.6255: real time   84.2507

 eigenvalue-minimisations  : 12288
 total energy-change (2. order) :-0.1209126E+02  (-0.1191593E+02)
 number of electron    1688.0000000 magnetization 
 augmentation part     1688.0000000 magnetization 

 DIPCOR: dipole corrections for dipol
 direction  3 min pos   169,
 dipolmoment           0.000000      0.000000     -0.003987 electrons x Angstroem
 Tr[quadrupol]    -89609.903838

 energy correction for charged system         0.000000 eV
 dipol+quadrupol energy correction           -0.000000 eV
 added-field ion interaction         -0.091841 eV  (added to PSCEN)


 Free energy of the ion-electron system (eV)
  ---------------------------------------------------
  alpha Z        PSCENC =      3399.80449282
  Ewald energy   TEWEN  =    370062.60712347
  -Hartree energ DENC   =   -528127.23910377
  -exchange      EXHF   =         0.00000000
  -V(xc)+E(xc)   XCENC  =     -1184.43657756
  PAW double counting   =    147331.07309591  -140706.08257636
  entropy T*S    EENTRO =        -0.05973863
  eigenvalues    EBANDS =     -4732.25454039
  atomic energy  EATOM  =    153288.04140334
  Solvation  Ediel_sol  =         0.00000000
  ---------------------------------------------------
  free energy    TOTEN  =      -668.54642118 eV

  energy without entropy =     -668.48668256  energy(sigma->0) =     -668.51655187


--------------------------------------------------------------------------------------------------------




--------------------------------------- Iteration      1(   5)  ---------------------------------------


     EDDAV:  cpu time   83.6991: real time   83.7561
       DOS:  cpu time    0.0045: real time    0.0045
    --------------------------------------------
      LOOP:  cpu time   83.7036: real time   83.7606

 eigenvalue-minimisations  : 13008
 total energy-change (2. order) :-0.3610463E+00  (-0.3604576E+00)
 number of electron    1688.0000000 magnetization 
 augmentation part     1688.0000000 magnetization 

 DIPCOR: dipole corrections for dipol
 direction  3 min pos   169,
 dipolmoment           0.000000      0.000000     -0.003987 electrons x Angstroem
 Tr[quadrupol]    -89609.903838

 energy correction for charged system         0.000000 eV
 dipol+quadrupol energy correction           -0.000000 eV
 added-field ion interaction         -0.091841 eV  (added to PSCEN)


 Free energy of the ion-electron system (eV)
  ---------------------------------------------------
  alpha Z        PSCENC =      3399.80449282
  Ewald energy   TEWEN  =    370062.60712347
  -Hartree energ DENC   =   -528127.23910377
  -exchange      EXHF   =         0.00000000
  -V(xc)+E(xc)   XCENC  =     -1184.43657756
  PAW double counting   =    147331.07309591  -140706.08257636
  entropy T*S    EENTRO =        -0.05989190
  eigenvalues    EBANDS =     -4732.61543345
  atomic energy  EATOM  =    153288.04140334
  Solvation  Ediel_sol  =         0.00000000
  ---------------------------------------------------
  free energy    TOTEN  =      -668.90746751 eV

  energy without entropy =     -668.84757562  energy(sigma->0) =     -668.87752156


--------------------------------------------------------------------------------------------------------




--------------------------------------- Iteration      1(   6)  ---------------------------------------


     EDDAV:  cpu time   83.8870: real time   83.9327
       DOS:  cpu time    0.0047: real time    0.0047
    --------------------------------------------
      LOOP:  cpu time   83.8916: real time   83.9374

 eigenvalue-minimisations  : 13104
 total energy-change (2. order) :-0.1266791E-01  (-0.1266445E-01)
 number of electron    1688.0000000 magnetization 
 augmentation part     1688.0000000 magnetization 

 DIPCOR: dipole corrections for dipol
 direction  3 min pos   169,
 dipolmoment           0.000000      0.000000     -0.003987 electrons x Angstroem
 Tr[quadrupol]    -89609.903838

 energy correction for charged system         0.000000 eV
 dipol+quadrupol energy correction           -0.000000 eV
 added-field ion interaction         -0.091841 eV  (added to PSCEN)


 Free energy of the ion-electron system (eV)
  ---------------------------------------------------
  alpha Z        PSCENC =      3399.80449282
  Ewald energy   TEWEN  =    370062.60712347
  -Hartree energ DENC   =   -528127.23910377
  -exchange      EXHF   =         0.00000000
  -V(xc)+E(xc)   XCENC  =     -1184.43657756
  PAW double counting   =    147331.07309591  -140706.08257636
  entropy T*S    EENTRO =        -0.05990240
  eigenvalues    EBANDS =     -4732.62809085
  atomic energy  EATOM  =    153288.04140334
  Solvation  Ediel_sol  =         0.00000000
  ---------------------------------------------------
  free energy    TOTEN  =      -668.92013542 eV

  energy without entropy =     -668.86023302  energy(sigma->0) =     -668.89018422


--------------------------------------------------------------------------------------------------------




--------------------------------------- Iteration      1(   7)  ---------------------------------------


     EDDAV:  cpu time  100.8348: real time  100.8988
       DOS:  cpu time    0.0041: real time    0.0041
    CHARGE:  cpu time    2.8989: real time    2.9044
    MIXING:  cpu time    0.0050: real time    0.0056
    --------------------------------------------
      LOOP:  cpu time  103.7428: real time  103.8129

 eigenvalue-minimisations  : 15552
 total energy-change (2. order) :-0.5585172E-03  (-0.5584983E-03)
 number of electron    1688.0000644 magnetization 
 augmentation part      737.5630583 magnetization 

 DIPCOR: dipole corrections for dipol
 direction  3 min pos   169,
 dipolmoment           0.000000      0.000000     -0.003987 electrons x Angstroem
 Tr[quadrupol]    -89609.903838

 energy correction for charged system         0.000000 eV
 dipol+quadrupol energy correction           -0.000000 eV
 added-field ion interaction         -0.091841 eV  (added to PSCEN)


 Broyden mixing:
  rms(total) = 0.62082E+01    rms(broyden)= 0.62071E+01
  rms(prec ) = 0.66714E+01
  weight for this iteration     100.00

 Free energy of the ion-electron system (eV)
  ---------------------------------------------------
  alpha Z        PSCENC =      3399.80449282
  Ewald energy   TEWEN  =    370062.60712347
  -Hartree energ DENC   =   -528127.23910377
  -exchange      EXHF   =         0.00000000
  -V(xc)+E(xc)   XCENC  =     -1184.43657756
  PAW double counting   =    147331.07309591  -140706.08257636
  entropy T*S    EENTRO =        -0.05990251
  eigenvalues    EBANDS =     -4732.62864926
  atomic energy  EATOM  =    153288.04140334
  Solvation  Ediel_sol  =         0.00000000
  ---------------------------------------------------
  free energy    TOTEN  =      -668.92069394 eV

  energy without entropy =     -668.86079143  energy(sigma->0) =     -668.89074268


--------------------------------------------------------------------------------------------------------




--------------------------------------- Iteration      1(   8)  ---------------------------------------


    POTLOK:  cpu time    0.1500: real time    0.1506
    SETDIJ:  cpu time    0.0143: real time    0.0143
    EDDIAG:  cpu time   13.8260: real time   13.8381
  RMM-DIIS:  cpu time   32.7929: real time   32.8210
    ORTHCH:  cpu time    4.6696: real time    4.6709
       DOS:  cpu time    0.0012: real time    0.0012
    CHARGE:  cpu time    2.8825: real time    2.8837
    MIXING:  cpu time    0.0048: real time    0.0106
    --------------------------------------------
      LOOP:  cpu time   54.3412: real time   54.3904

 eigenvalue-minimisations  : 10585
 total energy-change (2. order) : 0.2558738E+02  (-0.1707955E+02)
 number of electron    1688.0000633 magnetization 
 augmentation part      759.5855244 magnetization 

 DIPCOR: dipole corrections for dipol
 direction  3 min pos   173,
 dipolmoment           0.000000      0.000000      5.000999 electrons x Angstroem
 Tr[quadrupol]    -89600.015272

 energy correction for charged system         0.000000 eV
 dipol+quadrupol energy correction           -0.397291 eV
 added-field ion interaction        213.915414 eV  (added to PSCEN)


 Broyden mixing:
  rms(total) = 0.45126E+01    rms(broyden)= 0.45105E+01
  rms(prec ) = 0.54967E+01
  weight for this iteration     100.00

 eigenvalues of (default mixing * dielectric matrix)
  average eigenvalue GAMMA=   0.8610
  0.8610

 Free energy of the ion-electron system (eV)
  ---------------------------------------------------
  alpha Z        PSCENC =      3613.41445729
  Ewald energy   TEWEN  =    370062.60712347
  -Hartree energ DENC   =   -526649.10426591
  -exchange      EXHF   =         0.00000000
  -V(xc)+E(xc)   XCENC  =     -1218.42003505
  PAW double counting   =    154644.65702691  -148146.67617084
  entropy T*S    EENTRO =        -0.02873345
  eigenvalues    EBANDS =     -6237.82412171
  atomic energy  EATOM  =    153288.04140334
  Solvation  Ediel_sol  =         0.00000000
  ---------------------------------------------------
  free energy    TOTEN  =      -643.33331595 eV

  energy without entropy =     -643.30458251  energy(sigma->0) =     -643.31894923


--------------------------------------------------------------------------------------------------------




--------------------------------------- Iteration      1(   9)  ---------------------------------------


    POTLOK:  cpu time    0.1515: real time    0.1515
    SETDIJ:  cpu time    0.0146: real time    0.0146
    EDDIAG:  cpu time   13.8281: real time   13.8379
  RMM-DIIS:  cpu time   32.4667: real time   32.5010
    ORTHCH:  cpu time    4.5595: real time    4.5620
       DOS:  cpu time    0.0012: real time    0.0012
    CHARGE:  cpu time    2.9344: real time    2.9383
    MIXING:  cpu time    0.0046: real time    0.0047
    --------------------------------------------
      LOOP:  cpu time   53.9605: real time   54.0111

 eigenvalue-minimisations  : 10560
 total energy-change (2. order) :-0.2470104E+02  (-0.5885994E+01)
 number of electron    1688.0000616 magnetization 
 augmentation part      757.5673968 magnetization 

 DIPCOR: dipole corrections for dipol
 direction  3 min pos   170,
 dipolmoment           0.000000      0.000000     -6.384983 electrons x Angstroem
 Tr[quadrupol]    -89603.766450

 energy correction for charged system         0.000000 eV
 dipol+quadrupol energy correction           -0.647612 eV
 added-field ion interaction       -178.592002 eV  (added to PSCEN)


 Broyden mixing:
  rms(total) = 0.34985E+01    rms(broyden)= 0.34978E+01
  rms(prec ) = 0.55367E+01
  weight for this iteration     100.00

 eigenvalues of (default mixing * dielectric matrix)
  average eigenvalue GAMMA=   0.9211
  1.3497  0.4924

 Free energy of the ion-electron system (eV)
  ---------------------------------------------------
  alpha Z        PSCENC =      3220.65671971
  Ewald energy   TEWEN  =    370062.60712347
  -Hartree energ DENC   =   -526989.61972079
  -exchange      EXHF   =         0.00000000
  -V(xc)+E(xc)   XCENC  =     -1223.13393919
  PAW double counting   =    158130.80106942  -151695.47479921
  entropy T*S    EENTRO =        -0.02493006
  eigenvalues    EBANDS =     -5461.88728012
  atomic energy  EATOM  =    153288.04140334
  Solvation  Ediel_sol  =         0.00000000
  ---------------------------------------------------
  free energy    TOTEN  =      -668.03435344 eV

  energy without entropy =     -668.00942337  energy(sigma->0) =     -668.02188840


--------------------------------------------------------------------------------------------------------




--------------------------------------- Iteration      1(  10)  ---------------------------------------


    POTLOK:  cpu time    0.1492: real time    0.1493
    SETDIJ:  cpu time    0.0143: real time    0.0143
    EDDIAG:  cpu time   13.8128: real time   13.8204
  RMM-DIIS:  cpu time   32.6058: real time   32.6482
    ORTHCH:  cpu time    4.5331: real time    4.5353
       DOS:  cpu time    0.0012: real time    0.0012
    CHARGE:  cpu time    2.8933: real time    2.8974
    MIXING:  cpu time    0.0047: real time    0.0047
    --------------------------------------------
      LOOP:  cpu time   54.0143: real time   54.0708

 eigenvalue-minimisations  : 10581
 total energy-change (2. order) : 0.4992950E+02  (-0.3510935E+01)
 number of electron    1688.0000648 magnetization 
 augmentation part      761.2890199 magnetization 

 DIPCOR: dipole corrections for dipol
 direction  3 min pos   174,
 dipolmoment           0.000000      0.000000      2.236583 electrons x Angstroem
 Tr[quadrupol]    -89621.886285

 energy correction for charged system         0.000000 eV
 dipol+quadrupol energy correction           -0.079463 eV
 added-field ion interaction        106.705524 eV  (added to PSCEN)


 Broyden mixing:
  rms(total) = 0.22052E+01    rms(broyden)= 0.22051E+01
  rms(prec ) = 0.27242E+01
[...]
    --------------------------------------------
      LOOP:  cpu time   40.4813: real time   40.5187

 eigenvalue-minimisations  :  6022
 total energy-change (2. order) :-0.5924376E-06  (-0.6956710E-06)
 number of electron    1688.0000640 magnetization 
 augmentation part      760.9191843 magnetization 

 DIPCOR: dipole corrections for dipol
 direction  3 min pos   169,
 dipolmoment           0.000000      0.000000     -0.631912 electrons x Angstroem
 Tr[quadrupol]    -89638.798887

 energy correction for charged system         0.000000 eV
 dipol+quadrupol energy correction           -0.006343 eV
 added-field ion interaction        -14.556361 eV  (added to PSCEN)


 eigenvalues of (default mixing * dielectric matrix)
  average eigenvalue GAMMA=   1.1294
  1.1294

  free energy =  -0.609478292357E+03  energy without entropy=  -0.609455505157E+03


--------------------------------------------------------------------------------------------------------




--------------------------------------- Iteration      5(   3)  ---------------------------------------


    POTLOK:  cpu time    0.1505: real time    0.1508
    SETDIJ:  cpu time    0.0142: real time    0.0142
    EDDIAG:  cpu time   18.4482: real time   19.0774
  RMM-DIIS:  cpu time   13.0064: real time   13.0162
    ORTHCH:  cpu time    4.5537: real time    4.5561
       DOS:  cpu time    0.0012: real time    0.0012
    CHARGE:  cpu time    2.9162: real time    2.9184
    MIXING:  cpu time    0.0047: real time    0.0047
    --------------------------------------------
      LOOP:  cpu time   39.0952: real time   39.7389

 eigenvalue-minimisations  :  2021
 total energy-change (2. order) : 0.4211324E-07  (-0.3367975E-07)
 number of electron    1688.0000640 magnetization 
 augmentation part      760.9191824 magnetization 

 DIPCOR: dipole corrections for dipol
 direction  3 min pos   169,
 dipolmoment           0.000000      0.000000     -0.632027 electrons x Angstroem
 Tr[quadrupol]    -89638.798827

 energy correction for charged system         0.000000 eV
 dipol+quadrupol energy correction           -0.006346 eV
 added-field ion interaction        -14.559020 eV  (added to PSCEN)


 eigenvalues of (default mixing * dielectric matrix)
  average eigenvalue GAMMA=   1.4848
  0.9696  1.9999

  free energy =  -0.609478292315E+03  energy without entropy=  -0.609455505533E+03


--------------------------------------------------------------------------------------------------------




--------------------------------------- Iteration      5(   4)  ---------------------------------------


    POTLOK:  cpu time    0.1500: real time    0.1506
    SETDIJ:  cpu time    0.0142: real time    0.0142
    EDDIAG:  cpu time   13.7417: real time   13.7563
  RMM-DIIS:  cpu time   12.6307: real time   12.6392
    ORTHCH:  cpu time    4.6762: real time    4.6814
       DOS:  cpu time    0.0012: real time    0.0012
    CHARGE:  cpu time    2.8815: real time    2.8828
    MIXING:  cpu time    0.0048: real time    0.0048
    --------------------------------------------
      LOOP:  cpu time   34.1002: real time   34.1303

 eigenvalue-minimisations  :  1770
 total energy-change (2. order) :-0.1408043E-06  (-0.1078816E-07)
 number of electron    1688.0000640 magnetization 
 augmentation part      760.9191876 magnetization 

 DIPCOR: dipole corrections for dipol
 direction  3 min pos   169,
 dipolmoment           0.000000      0.000000     -0.631602 electrons x Angstroem
 Tr[quadrupol]    -89638.799592

 energy correction for charged system         0.000000 eV
 dipol+quadrupol energy correction           -0.006337 eV
 added-field ion interaction        -14.549231 eV  (added to PSCEN)


 eigenvalues of (default mixing * dielectric matrix)
  average eigenvalue GAMMA=   1.1738
  2.2038  0.9385  0.3790

  free energy =  -0.609478292456E+03  energy without entropy=  -0.609455504250E+03


--------------------------------------------------------------------------------------------------------




--------------------------------------- Iteration      5(   5)  ---------------------------------------


    POTLOK:  cpu time    0.1513: real time    0.1528
    SETDIJ:  cpu time    0.0141: real time    0.0141
    EDDIAG:  cpu time   13.7669: real time   13.7764
  RMM-DIIS:  cpu time   11.7430: real time   11.7496
    ORTHCH:  cpu time    4.5474: real time    4.5513
       DOS:  cpu time    0.0012: real time    0.0012
    --------------------------------------------
      LOOP:  cpu time   30.2240: real time   30.2455

 eigenvalue-minimisations  :  1257
 total energy-change (2. order) : 0.1373992E-06  (-0.1420225E-08)
 number of electron    1688.0000640 magnetization 
 augmentation part      760.9191876 magnetization 

 DIPCOR: dipole corrections for dipol
 direction  3 min pos   169,
 dipolmoment           0.000000      0.000000     -0.631979 electrons x Angstroem
 Tr[quadrupol]    -89638.799082

 energy correction for charged system         0.000000 eV
 dipol+quadrupol energy correction           -0.006345 eV
 added-field ion interaction        -14.557921 eV  (added to PSCEN)


  free energy =  -0.609478292319E+03  energy without entropy=  -0.609455505534E+03


--------------------------------------------------------------------------------------------------------




------------------------ aborting loop because EDIFF is reached ----------------------------------------


    CHARGE:  cpu time    2.8921: real time    2.8937
    FORLOC:  cpu time    0.1297: real time    0.1297
    FORNL :  cpu time   11.0382: real time   11.0442
    STRESS:  cpu time   32.9506: real time   32.9732
    FORCOR:  cpu time    0.2289: real time    0.2293
    FORHAR:  cpu time    0.1576: real time    0.1577
    MIXING:  cpu time    0.0050: real time    0.0050
    OFIELD:  cpu time    0.0001: real time    0.0001

  Number of pair interactions contributing to vdW energy:  771505
  Edisp (eV):  -11.69084
    FORVDW:  cpu time    0.1026: real time    0.1026

  FORCE on cell =-STRESS in cart. coord.  units (eV):
  Direction    XX          YY          ZZ          XY          YZ          ZX
  --------------------------------------------------------------------------------------
  Alpha Z  3399.89633  3399.89633  3399.89633
  Ewald  462691.81288460453.77287************  -961.09979  -555.87693   -52.78908
  Hartree505211.85170503195.56894************  -953.18433  -339.70553  -108.89639
  E(xc)   -8752.49289 -8753.16386 -8784.32225     0.28185    -0.94624     0.40587
  Local  ************************************  1930.19932   872.82595   175.27920
  n-local -1409.40475 -1408.68999 -1453.13897    -0.90180    -0.51398    -0.00770
  augment 13244.15109 13245.07291 13298.21801    -0.85578     0.39796    -0.22297
  Kinetic 21176.28981 21193.32823 21531.47112   -14.43172    23.30633   -13.93831
  Fock        0.00000     0.00000     0.00000     0.00000     0.00000     0.00000
  vdW       -15.72550   -15.59817   -12.79332     0.04774     0.08005     0.00890
  -------------------------------------------------------------------------------------
  Total       9.31683     8.91491     9.84226     0.05549    -0.43239    -0.16047
  in kB       2.59275     2.48090     2.73897     0.01544    -0.12033    -0.04466
  external pressure =        2.60 kB  Pullay stress =        0.00 kB



--------------------------------------------------------------------------------------------------------



  FREE ENERGIE OF THE ION-ELECTRON SYSTEM (eV)
  ---------------------------------------------------
  free  energy   TOTEN  =      -621.16912878 eV

  energy  without entropy=     -621.14634199  energy(sigma->0) =     -621.15773539
 
 d Force = 0.2573328E-05[ 0.593E-07, 0.509E-05]  d Energy = 0.4405186E-05-0.183E-05
 d Force = 0.3334807E+00[ 0.333E+00, 0.333E+00]  d Ewald  = 0.3334804E+00 0.240E-06


--------------------------------------------------------------------------------------------------------


    POTLOK:  cpu time    0.1685: real time    0.1687


--------------------------------------------------------------------------------------------------------




--------------------------------------------------------------------------------------------------------


    WAVPRE:  cpu time    0.1183: real time    0.1198
    FEWALD:  cpu time    0.0056: real time    0.0056
    ORTHCH:  cpu time    8.3375: real time    8.3425
     LOOP+:  cpu time  276.0495: real time  276.8872


--------------------------------------- Iteration      6(   1)  ---------------------------------------


    POTLOK:  cpu time    0.1528: real time    0.1565
    SETDIJ:  cpu time    0.0141: real time    0.0141
     EDDAV:  cpu time   73.5778: real time   73.6416
       DOS:  cpu time    0.0041: real time    0.0041
    CHARGE:  cpu time    2.9222: real time    2.9253
    MIXING:  cpu time    0.0043: real time    0.0043
    --------------------------------------------
      LOOP:  cpu time   76.6752: real time   76.7459

 eigenvalue-minimisations  : 11040
 total energy-change (2. order) :-0.1126177E-03  (-0.7466994E-03)
 number of electron    1688.0000641 magnetization 
 augmentation part      760.9192175 magnetization 

 DIPCOR: dipole corrections for dipol
 direction  3 min pos   169,
 dipolmoment           0.000000      0.000000     -0.631932 electrons x Angstroem
 Tr[quadrupol]    -89638.877347

 energy correction for charged system         0.000000 eV
 dipol+quadrupol energy correction           -0.006344 eV
 added-field ion interaction        -14.556615 eV  (added to PSCEN)


  free energy =  -0.609478405074E+03  energy without entropy=  -0.609455624174E+03


--------------------------------------------------------------------------------------------------------




--------------------------------------- Iteration      6(   2)  ---------------------------------------


    POTLOK:  cpu time    0.1517: real time    0.1520
    SETDIJ:  cpu time    0.0148: real time    0.0148
    EDDIAG:  cpu time   13.9167: real time   13.9276
  RMM-DIIS:  cpu time   24.0215: real time   24.0410
    ORTHCH:  cpu time    4.6590: real time    4.6615
       DOS:  cpu time    0.0012: real time    0.0012
    CHARGE:  cpu time    2.8802: real time    2.8863
    MIXING:  cpu time    0.0043: real time    0.0043
    --------------------------------------------
      LOOP:  cpu time   45.6495: real time   45.6887

 eigenvalue-minimisations  :  7619
 total energy-change (2. order) :-0.8530129E-05  (-0.1037567E-04)
 number of electron    1688.0000641 magnetization 
 augmentation part      760.9190853 magnetization 

 DIPCOR: dipole corrections for dipol
 direction  3 min pos   169,
 dipolmoment           0.000000      0.000000     -0.631859 electrons x Angstroem
 Tr[quadrupol]    -89638.877056

 energy correction for charged system         0.000000 eV
 dipol+quadrupol energy correction           -0.006342 eV
 added-field ion interaction        -14.554939 eV  (added to PSCEN)


 eigenvalues of (default mixing * dielectric matrix)
  average eigenvalue GAMMA=   0.9283
  0.9283

  free energy =  -0.609478413604E+03  energy without entropy=  -0.609455631242E+03


--------------------------------------------------------------------------------------------------------




--------------------------------------- Iteration      6(   3)  ---------------------------------------


    POTLOK:  cpu time    0.1524: real time    0.1526
    SETDIJ:  cpu time    0.0142: real time    0.0142
    EDDIAG:  cpu time   13.8008: real time   13.8085
  RMM-DIIS:  cpu time   18.8183: real time   18.8327
    ORTHCH:  cpu time    4.5550: real time    4.5570
       DOS:  cpu time    0.0012: real time    0.0012
    CHARGE:  cpu time    2.9001: real time    2.9016
    MIXING:  cpu time    0.0045: real time    0.0045
    --------------------------------------------
      LOOP:  cpu time   40.2465: real time   40.2723

 eigenvalue-minimisations  :  5924
 total energy-change (2. order) : 0.1033681E-05  (-0.5031776E-06)
 number of electron    1688.0000641 magnetization 
 augmentation part      760.9191252 magnetization 

 DIPCOR: dipole corrections for dipol
 direction  3 min pos   169,
 dipolmoment           0.000000      0.000000     -0.632000 electrons x Angstroem
 Tr[quadrupol]    -89638.876839

 energy correction for charged system         0.000000 eV
 dipol+quadrupol energy correction           -0.006345 eV
 added-field ion interaction        -14.558179 eV  (added to PSCEN)


 eigenvalues of (default mixing * dielectric matrix)
  average eigenvalue GAMMA=   1.4291
  0.9451  1.9131

  free energy =  -0.609478412570E+03  energy without entropy=  -0.609455631179E+03


--------------------------------------------------------------------------------------------------------




--------------------------------------- Iteration      6(   4)  ---------------------------------------


    POTLOK:  cpu time    0.1521: real time    0.1529
    SETDIJ:  cpu time    0.0142: real time    0.0142
    EDDIAG:  cpu time   13.7826: real time   13.7974
  RMM-DIIS:  cpu time   18.4914: real time   18.5120
    ORTHCH:  cpu time    4.5452: real time    4.5490
       DOS:  cpu time    0.0012: real time    0.0012
    CHARGE:  cpu time    2.8849: real time    2.8873
    MIXING:  cpu time    0.0048: real time    0.0048
    --------------------------------------------
      LOOP:  cpu time   39.8764: real time   39.9187

 eigenvalue-minimisations  :  5698
 total energy-change (2. order) :-0.2647284E-06  (-0.1957629E-06)
 number of electron    1688.0000641 magnetization 
 augmentation part      760.9191296 magnetization 

 DIPCOR: dipole corrections for dipol
 direction  3 min pos   169,
 dipolmoment           0.000000      0.000000     -0.631233 electrons x Angstroem
 Tr[quadrupol]    -89638.877934

 energy correction for charged system         0.000000 eV
 dipol+quadrupol energy correction           -0.006330 eV
 added-field ion interaction        -14.540511 eV  (added to PSCEN)


 eigenvalues of (default mixing * dielectric matrix)
  average eigenvalue GAMMA=   1.2376
  2.1261  0.9187  0.6681

  free energy =  -0.609478412835E+03  energy without entropy=  -0.609455628639E+03


--------------------------------------------------------------------------------------------------------




--------------------------------------- Iteration      6(   5)  ---------------------------------------


    POTLOK:  cpu time    0.1495: real time    0.1509
    SETDIJ:  cpu time    0.0141: real time    0.0141
    EDDIAG:  cpu time   13.8722: real time   13.9078
  RMM-DIIS:  cpu time   12.9125: real time   12.9200
    ORTHCH:  cpu time    4.5349: real time    4.5373
       DOS:  cpu time    0.0012: real time    0.0012
    --------------------------------------------
      LOOP:  cpu time   31.4843: real time   31.5312

 eigenvalue-minimisations  :  1943
 total energy-change (2. order) : 0.4627800E-06  (-0.2194121E-07)
 number of electron    1688.0000641 magnetization 
 augmentation part      760.9191296 magnetization 

 DIPCOR: dipole corrections for dipol
 direction  3 min pos   169,
 dipolmoment           0.000000      0.000000     -0.632197 electrons x Angstroem
 Tr[quadrupol]    -89638.876456

 energy correction for charged system         0.000000 eV
 dipol+quadrupol energy correction           -0.006349 eV
 added-field ion interaction        -14.562721 eV  (added to PSCEN)


  free energy =  -0.609478412372E+03  energy without entropy=  -0.609455631799E+03


--------------------------------------------------------------------------------------------------------




------------------------ aborting loop because EDIFF is reached ----------------------------------------


    CHARGE:  cpu time    2.8952: real time    2.9550
    FORLOC:  cpu time    0.1280: real time    0.1987
    FORNL :  cpu time   11.3071: real time   11.3162
    STRESS:  cpu time   33.5803: real time   33.8267
    FORCOR:  cpu time    0.2297: real time    0.2297
    FORHAR:  cpu time    0.1560: real time    0.1560
    MIXING:  cpu time    0.0050: real time    0.0050
    OFIELD:  cpu time    0.0001: real time    0.0001

  Number of pair interactions contributing to vdW energy:  771500
  Edisp (eV):  -11.69078
    FORVDW:  cpu time    0.1026: real time    0.1029

  FORCE on cell =-STRESS in cart. coord.  units (eV):
  Direction    XX          YY          ZZ          XY          YZ          ZX
  --------------------------------------------------------------------------------------
  Alpha Z  3399.89633  3399.89633  3399.89633
  Ewald  462689.46411460451.43296************  -961.39973  -555.71041   -52.70162
  Hartree505209.57230503193.28962************  -953.30168  -339.60565  -108.82485
  E(xc)   -8752.49095 -8753.16191 -8784.32065     0.28114    -0.94599     0.40604
  Local  ************************************  1930.58033   872.57661   175.11808
  n-local -1409.42115 -1408.69954 -1453.15245    -0.89707    -0.51515    -0.01585
  augment 13244.15007 13245.07241 13298.21837    -0.85534     0.39783    -0.22335
  Kinetic 21176.28111 21193.32091 21531.46815   -14.41426    23.29839   -13.93914
  Fock        0.00000     0.00000     0.00000     0.00000     0.00000     0.00000
  vdW       -15.72563   -15.59806   -12.79342     0.04782     0.08005     0.00890
  -------------------------------------------------------------------------------------
  Total       9.28726     8.90100     9.82544     0.04120    -0.42432    -0.17179
  in kB       2.58452     2.47703     2.73429     0.01147    -0.11808    -0.04781
  external pressure =        2.60 kB  Pullay stress =        0.00 kB



--------------------------------------------------------------------------------------------------------



  FREE ENERGIE OF THE ION-ELECTRON SYSTEM (eV)
  ---------------------------------------------------
  free  energy   TOTEN  =      -621.16919652 eV

  energy  without entropy=     -621.14641594  energy(sigma->0) =     -621.15780623
 
 d Force = 0.5549175E-04[ 0.356E-04, 0.754E-04]  d Energy = 0.6773574E-04-0.122E-04
 d Force = 0.2327292E+01[ 0.233E+01, 0.233E+01]  d Ewald  = 0.2327291E+01 0.133E-05


--------------------------------------------------------------------------------------------------------


    POTLOK:  cpu time    0.1693: real time    0.1695


--------------------------------------------------------------------------------------------------------


 Conjugate gradient step on ions:
 trial-energy change:   -0.000068  1 .order   -0.000055   -0.000075   -0.000036
  (g-gl).g = 0.665E-04      g.g   = 0.669E-04  gl.gl    = 0.165E-03
 g(Force)  = 0.669E-04   g(Stress)= 0.000E+00 ortho     = 0.298E-06
 gamma     =   0.40335
 trial     =   1.12451
 opt step  =   2.13029  (harmonic =   2.13029) maximal distance =0.00066683
 next E    =  -621.169200   (d E  =  -0.00007)


--------------------------------------------------------------------------------------------------------


  
 reached required accuracy - stopping structural energy minimisation
     LOOP+:  cpu time  282.5873: real time  283.2008
    4ORBIT:  cpu time    0.0000: real time    0.0000

 total amount of memory used by VASP MPI-rank0   375321. kBytes
=======================================================================

   base      :      30000. kBytes
   nonlr-proj:      55060. kBytes
   fftplans  :       9705. kBytes
   grid      :      52925. kBytes
   one-center:       2830. kBytes
   wavefun   :     224801. kBytes
 
  
  
 General timing and accounting informations for this job:
 ========================================================
  
                  Total CPU time used (sec):     3278.564
                            User time (sec):     3264.802
                          System time (sec):       13.762
                         Elapsed time (sec):     3285.673
  
                   Maximum memory used (kb):      796148.
                   Average memory used (kb):           0.
  
                          Minor page faults:      1265001
                          Major page faults:            0
                 Voluntary context switches:         4854
