 vasp.5.4.4.18Apr17-6-g9f103f2a35 (build May 11 2017 09:47:33) complex          
  
 executed on            tekla2IFC date 2022.05.24  19:36:19
 running on   12 total cores
 distrk:  each k-point on   12 cores,    1 groups
 distr:  one band on NCORES_PER_BAND=   1 cores,   12 groups


--------------------------------------------------------------------------------------------------------


 INCAR:
 POTCAR:    PAW_PBE C 08Apr2002                   
 POTCAR:    PAW_PBE H 15Jun2001                   
 POTCAR:    PAW_PBE O 08Apr2002                   

 ----------------------------------------------------------------------------- 
|                                                                             |
|           W    W    AA    RRRRR   N    N  II  N    N   GGGG   !!!           |
|           W    W   A  A   R    R  NN   N  II  NN   N  G    G  !!!           |
|           W    W  A    A  R    R  N N  N  II  N N  N  G       !!!           |
|           W WW W  AAAAAA  RRRRR   N  N N  II  N  N N  G  GGG   !            |
|           WW  WW  A    A  R   R   N   NN  II  N   NN  G    G                |
|           W    W  A    A  R    R  N    N  II  N    N   GGGG   !!!           |
|                                                                             |
|      For optimal performance we recommend to set                            |
|        NCORE= 4 - approx SQRT( number of cores)                             |
|      NCORE specifies how many cores store one orbital (NPAR=cpu/NCORE).     |
|      This setting can  greatly improve the performance of VASP for DFT.     |
|      The default,   NCORE=1            might be grossly inefficient         |
|      on modern multi-core architectures or massively parallel machines.     |
|      Do your own testing !!!!                                               |
|      Unfortunately you need to use the default for GW and RPA calculations. |
|      (for HF NCORE is supported but not extensively tested yet)             |
|                                                                             |
 ----------------------------------------------------------------------------- 

 POTCAR:    PAW_PBE C 08Apr2002                   
  local pseudopotential read in
  partial core-charges read in
  partial kinetic energy density read in
  atomic valenz-charges read in
  non local Contribution for L=           0  read in
    real space projection operators read in
  non local Contribution for L=           0  read in
    real space projection operators read in
  non local Contribution for L=           1  read in
    real space projection operators read in
  non local Contribution for L=           1  read in
    real space projection operators read in
    PAW grid and wavefunctions read in
 
   number of l-projection  operators is LMAX  =           4
   number of lm-projection operators is LMMAX =           8
 
 POTCAR:    PAW_PBE H 15Jun2001                   
  local pseudopotential read in
  atomic valenz-charges read in
  non local Contribution for L=           0  read in
    real space projection operators read in
  non local Contribution for L=           0  read in
    real space projection operators read in
  non local Contribution for L=           1  read in
    real space projection operators read in
    PAW grid and wavefunctions read in
 
   number of l-projection  operators is LMAX  =           3
   number of lm-projection operators is LMMAX =           5
 
 POTCAR:    PAW_PBE O 08Apr2002                   
  local pseudopotential read in
  partial core-charges read in
  partial kinetic energy density read in
  kinetic energy density of atom read in
  atomic valenz-charges read in
  non local Contribution for L=           0  read in
    real space projection operators read in
  non local Contribution for L=           0  read in
    real space projection operators read in
  non local Contribution for L=           1  read in
    real space projection operators read in
  non local Contribution for L=           1  read in
    real space projection operators read in
    PAW grid and wavefunctions read in
 
   number of l-projection  operators is LMAX  =           4
   number of lm-projection operators is LMMAX =           8
 
 Optimization of the real space projectors (new method)

 maximal supplied QI-value         = 25.13
 optimisation between [QCUT,QGAM] = [ 10.81, 21.61] = [ 32.71,130.83] Ry 
 Optimized for a Real-space Cutoff    1.23 Angstroem

   l    n(q)    QCUT    max X(q) W(low)/X(q) W(high)/X(q)  e(spline) 
   0      8    10.807   115.676    0.36E-03    0.72E-03    0.24E-06
   0      8    10.807    87.132    0.35E-03    0.71E-03    0.24E-06
   1      7    10.807     4.429    0.19E-03    0.39E-03    0.11E-06
   1      7    10.807     2.733    0.14E-03    0.28E-03    0.13E-06
 Optimization of the real space projectors (new method)

 maximal supplied QI-value         = 34.20
 optimisation between [QCUT,QGAM] = [ 10.60, 21.55] = [ 31.48,130.03] Ry 
 Optimized for a Real-space Cutoff    1.23 Angstroem

   l    n(q)    QCUT    max X(q) W(low)/X(q) W(high)/X(q)  e(spline) 
   0      8    10.603    19.460    0.37E-03    0.59E-03    0.23E-06
   0      8    10.603    12.209    0.35E-03    0.56E-03    0.22E-06
   1      7    10.603     4.655    0.70E-04    0.28E-03    0.29E-06
 Optimization of the real space projectors (new method)

 maximal supplied QI-value         = 24.76
 optimisation between [QCUT,QGAM] = [ 10.64, 21.54] = [ 31.73,129.89] Ry 
 Optimized for a Real-space Cutoff    1.23 Angstroem

   l    n(q)    QCUT    max X(q) W(low)/X(q) W(high)/X(q)  e(spline) 
   0      8    10.645    20.381    0.38E-03    0.60E-03    0.15E-06
   0      8    10.645    15.268    0.40E-03    0.65E-03    0.17E-06
   1      7    10.645     5.964    0.30E-03    0.63E-03    0.18E-06
   1      7    10.645     5.382    0.24E-03    0.53E-03    0.16E-06
  PAW_PBE C 08Apr2002                   :
 energy of atom  1       EATOM= -147.1560
 kinetic energy error for atom=    0.0116 (will be added to EATOM!!)
  PAW_PBE H 15Jun2001                   :
 energy of atom  2       EATOM=  -12.4884
 kinetic energy error for atom=    0.0045 (will be added to EATOM!!)
  PAW_PBE O 08Apr2002                   :
 energy of atom  3       EATOM= -432.3788
 kinetic energy error for atom=    0.0389 (will be added to EATOM!!)
 
 
 POSCAR: C  H  O                                 
  positions in cartesian coordinates
  No initial velocities read in
 exchange correlation table for  LEXCH =        8
   RHO(1)=    0.500       N(1)  =     2000
   RHO(2)=  100.500       N(2)  =     4000
 


--------------------------------------------------------------------------------------------------------


 ion  position               nearest neighbor table
   1  0.361  0.403  0.477-  39 1.38   2 1.39   6 1.41
   2  0.410  0.435  0.516-  18 1.09   1 1.39   3 1.41
   3  0.440  0.494  0.492-   4 1.40   2 1.41   8 1.50
   4  0.420  0.520  0.431-  19 1.09   3 1.40   5 1.40
   5  0.370  0.489  0.392-  20 1.09   6 1.39   4 1.40
   6  0.341  0.430  0.415-  38 1.37   5 1.39   1 1.41
   7  0.349  0.313  0.555-  23 1.10  24 1.10  22 1.10  39 1.43
   8  0.495  0.527  0.531-  25 1.10  41 1.46   3 1.50   9 1.55
   9  0.563  0.492  0.528-  26 1.11  40 1.44  16 1.53   8 1.55
  10  0.650  0.484  0.447-  40 1.38  11 1.39  12 1.42
  11  0.668  0.426  0.411-  28 1.09  10 1.39  13 1.40
  12  0.701  0.529  0.466-  43 1.37  14 1.40  10 1.42
  13  0.734  0.413  0.395-  29 1.09  15 1.39  11 1.40
  14  0.768  0.515  0.450-  30 1.09  15 1.40  12 1.40
  15  0.784  0.457  0.415-  31 1.09  13 1.39  14 1.40
  16  0.563  0.419  0.550-  33 1.10  32 1.11  42 1.43   9 1.53
  17  0.730  0.634  0.516-  36 1.10  35 1.10  37 1.10  43 1.43
  18  0.424  0.414  0.564-   2 1.09
  19  0.443  0.566  0.412-   4 1.09
  20  0.355  0.509  0.344-   5 1.09
  21  0.278  0.360  0.403-  38 0.98
  22  0.340  0.345  0.599-   7 1.10
  23  0.320  0.267  0.558-   7 1.10
  24  0.403  0.301  0.553-   7 1.10
  25  0.502  0.578  0.511-   8 1.10
  26  0.598  0.520  0.560-   9 1.11
  27  0.507  0.559  0.624-  41 0.97
  28  0.627  0.392  0.396-  11 1.09
  29  0.747  0.368  0.366-  13 1.09
  30  0.807  0.550  0.465-  14 1.09
  31  0.836  0.447  0.402-  15 1.09
  32  0.529  0.390  0.516-  16 1.11
  33  0.613  0.398  0.545-  16 1.10
  34  0.509  0.446  0.627-  42 0.98
  35  0.755  0.652  0.471-  17 1.10
  36  0.703  0.675  0.540-  17 1.10
  37  0.767  0.612  0.551-  17 1.10
  38  0.292  0.399  0.378-  21 0.98   6 1.37
  39  0.328  0.345  0.495-   1 1.38   7 1.43
  40  0.584  0.497  0.459-  10 1.38   9 1.44
  41  0.474  0.531  0.601-  27 0.97   8 1.46
  42  0.543  0.411  0.618-  34 0.98  16 1.43
  43  0.680  0.585  0.500-  12 1.37  17 1.43
 
  LATTYP: Found a simple cubic cell.
 ALAT       =    20.0000000000
  
  Lattice vectors:
  
 A1 = (  20.0000000000,   0.0000000000,   0.0000000000)
 A2 = (   0.0000000000,  20.0000000000,   0.0000000000)
 A3 = (   0.0000000000,   0.0000000000,  20.0000000000)


Analysis of symmetry for initial positions (statically):
=====================================================================
 Subroutine PRICEL returns:
 Original cell was already a primitive cell.
 

 Routine SETGRP: Setting up the symmetry group for a 
 simple cubic supercell.


 Subroutine GETGRP returns: Found  1 space group operations
 (whereof  1 operations were pure point group operations)
 out of a pool of 48 trial point group operations.


The static configuration has the point symmetry C_1 .


Analysis of symmetry for dynamics (positions and initial velocities):
=====================================================================
 Subroutine PRICEL returns:
 Original cell was already a primitive cell.
 

 Routine SETGRP: Setting up the symmetry group for a 
 simple cubic supercell.


 Subroutine GETGRP returns: Found  1 space group operations
 (whereof  1 operations were pure point group operations)
 out of a pool of 48 trial point group operations.


The dynamic configuration has the point symmetry C_1 .


Analysis of constrained symmetry for selective dynamics:
=====================================================================
 Subroutine PRICEL returns:
 Original cell was already a primitive cell.
 

 Routine SETGRP: Setting up the symmetry group for a 
 simple cubic supercell.


 Subroutine GETGRP returns: Found  1 space group operations
 (whereof  1 operations were pure point group operations)
 out of a pool of 48 trial point group operations.


The constrained configuration has the point symmetry C_1 .


 Subroutine INISYM returns: Found  1 space group operations
 (whereof  1 operations are pure point group operations),
 and found     1 'primitive' translations

 
 
 KPOINTS: K-POINTS                                

Automatic generation of k-mesh.
Space group operators:
 irot       det(A)        alpha          n_x          n_y          n_z        tau_x        tau_y        tau_z
    1     1.000000     0.000000     1.000000     0.000000     0.000000     0.000000     0.000000     0.000000
 
 Subroutine IBZKPT returns following result:
 ===========================================
 
 Found      1 irreducible k-points:
 
 Following reciprocal coordinates:
            Coordinates               Weight
  0.000000  0.000000  0.000000      1.000000
 
 Following cartesian coordinates:
            Coordinates               Weight
  0.000000  0.000000  0.000000      1.000000
 


--------------------------------------------------------------------------------------------------------




 Dimension of arrays:
   k-points           NKPTS =      1   k-points in BZ     NKDIM =      1   number of bands    NBANDS=     84
   number of dos      NEDOS =    301   number of ions     NIONS =     43
   non local maximal  LDIM  =      4   non local SUM 2l+1 LMDIM =      8
   total plane-waves  NPLWV = ******
   max r-space proj   IRMAX =   1268   max aug-charges    IRDMAX=   2242
   dimension x,y,z NGX =   108 NGY =  108 NGZ =  108
   dimension x,y,z NGXF=   216 NGYF=  216 NGZF=  216
   support grid    NGXF=   216 NGYF=  216 NGZF=  216
   ions per type =              17  20   6
   NGX,Y,Z   is equivalent  to a cutoff of   8.98,  8.98,  8.98 a.u.
   NGXF,Y,Z  is equivalent  to a cutoff of  17.95, 17.95, 17.95 a.u.

 SYSTEM =  ag-1211-a                               
 POSCAR =  C  H  O                                 

 Startparameter for this run:
   NWRITE =      0    write-flag & timer
   PREC   = normal    normal or accurate (medium, high low for compatibility)
   ISTART =      0    job   : 0-new  1-cont  2-samecut
   ICHARG =      2    charge: 1-file 2-atom 10-const
   ISPIN  =      1    spin polarized calculation?
   LNONCOLLINEAR =      F non collinear calculations
   LSORBIT =      F    spin-orbit coupling
   INIWAV =      1    electr: 0-lowe 1-rand  2-diag
   LASPH  =      F    aspherical Exc in radial PAW
   METAGGA=      F    non-selfconsistent MetaGGA calc.

 Electronic Relaxation 1
   ENCUT  =  450.0 eV  33.07 Ry    5.75 a.u.  34.59 34.59 34.59*2*pi/ulx,y,z
   ENINI  =  450.0     initial cutoff
   ENAUG  =  644.9 eV  augmentation charge cutoff
   NELM   =     50;   NELMIN=  5; NELMDL= -7     # of ELM steps 
   EDIFF  = 0.1E-04   stopping-criterion for ELM
   LREAL  =      T    real-space projection
   NLSPLINE    = F    spline interpolate recip. space projectors
   LCOMPAT=      F    compatible to vasp.4.4
   GGA_COMPAT  = T    GGA compatible to vasp.4.4-vasp.4.6
   LMAXPAW     = -100 max onsite density
   LMAXMIX     =    2 max onsite mixed and CHGCAR
   VOSKOWN=      0    Vosko Wilk Nusair interpolation
   ROPT   =   -0.00050  -0.00050  -0.00050
 Ionic relaxation
   EDIFFG = -.2E-01   stopping-criterion for IOM
   NSW    =    300    number of steps for IOM
   NBLOCK =      1;   KBLOCK =    300    inner block; outer block 
   IBRION =      2    ionic relax: 0-MD 1-quasi-New 2-CG
   NFREE  =      2    steps in history (QN), initial steepest desc. (CG)
   ISIF   =      2    stress and relaxation
   IWAVPR =     11    prediction:  0-non 1-charg 2-wave 3-comb
   ISYM   =      2    0-nonsym 1-usesym 2-fastsym
   LCORR  =      T    Harris-Foulkes like correction to forces

   POTIM  = 0.1500    time-step for ionic-motion
   TEIN   =    0.0    initial temperature
   TEBEG  =    0.0;   TEEND  =   0.0 temperature during run
   SMASS  =  -3.00    Nose mass-parameter (am)
   estimated Nose-frequenzy (Omega)   =  0.10E-29 period in steps =****** mass=  -0.914E-26a.u.
   SCALEE = 1.0000    scale energy and forces
   NPACO  =    256;   APACO  = 16.0  distance and # of slots for P.C.
   PSTRESS=    0.0 pullay stress

  Mass of Ions in am
   POMASS =  12.01  1.00 16.00
  Ionic Valenz
   ZVAL   =   4.00  1.00  6.00
  Atomic Wigner-Seitz radii
   RWIGS  =  -1.00 -1.00 -1.00
  virtual crystal weights 
   VCA    =   1.00  1.00  1.00
   NELECT =     124.0000    total number of electrons
   NUPDOWN=      -1.0000    fix difference up-down

 DOS related values:
   EMIN   =  10.00;   EMAX   =-10.00  energy-range for DOS
   EFERMI =   0.00
   ISMEAR =     0;   SIGMA  =   0.03  broadening in eV -4-tet -1-fermi 0-gaus

 Electronic relaxation 2 (details)
   IALGO  =     68    algorithm
   LDIAG  =      T    sub-space diagonalisation (order eigenvalues)
   LSUBROT=      F    optimize rotation matrix (better conditioning)
   TURBO    =      0    0=normal 1=particle mesh
   IRESTART =      0    0=no restart 2=restart with 2 vectors
   NREBOOT  =      0    no. of reboots
   NMIN     =      0    reboot dimension
   EREF     =   0.00    reference energy to select bands
   IMIX   =      4    mixing-type and parameters
     AMIX     =   0.40;   BMIX     =  1.00
     AMIX_MAG =   1.60;   BMIX_MAG =  1.00
     AMIN     =   0.10
     WC   =   100.;   INIMIX=   1;  MIXPRE=   1;  MAXMIX= -45

 Intra band minimization:
   WEIMIN = 0.0010     energy-eigenvalue tresh-hold
   EBREAK =  0.30E-07  absolut break condition
   DEPER  =   0.30     relativ break condition  

   TIME   =   0.40     timestep for ELM

  volume/ion in A,a.u.               =     186.05      1255.50
  Fermi-wavevector in a.u.,A,eV,Ry     =   0.408180  0.771349  2.266883  0.166611
  Thomas-Fermi vector in A             =   1.362322
 
 Write flags
   LWAVE        =      F    write WAVECAR
   LDOWNSAMPLE  =      F    k-point downsampling of WAVECAR
   LCHARG       =      F    write CHGCAR
   LVTOT        =      F    write LOCPOT, total local potential
   LVHAR        =      F    write LOCPOT, Hartree potential only
   LELF         =      F    write electronic localiz. function (ELF)
   LORBIT       =      0    0 simple, 1 ext, 2 COOP (PROOUT), +10 PAW based schemes


 Dipole corrections
   LMONO  =      F    monopole corrections only (constant potential shift)
   LDIPOL =      F    correct potential (dipole corrections)
   IDIPOL =      0    1-x, 2-y, 3-z, 4-all directions 
   EPSILON=  1.0000000 bulk dielectric constant

 Exchange correlation treatment:
   GGA     =    PE    GGA type
   LEXCH   =     8    internal setting for exchange type
   VOSKOWN=      0    Vosko Wilk Nusair interpolation
   LHFCALC =     F    Hartree Fock is set to
   LHFONE  =     F    Hartree Fock one center treatment
   AEXX    =    0.0000 exact exchange contribution

 Linear response parameters
   LEPSILON=     F    determine dielectric tensor
   LRPA    =     F    only Hartree local field effects (RPA)
   LNABLA  =     F    use nabla operator in PAW spheres
   LVEL    =     F    velocity operator in full k-point grid
   LINTERFAST=   F  fast interpolation
   KINTER  =     0    interpolate to denser k-point grid
   CSHIFT  =0.1000    complex shift for real part using Kramers Kronig
   OMEGAMAX=  -1.0    maximum frequency
   DEG_THRESHOLD= 0.2000000E-02 threshold for treating states as degnerate
   RTIME   =   -0.100 relaxation time in fs
  (WPLASMAI=    0.000 imaginary part of plasma frequency in eV, 0.658/RTIME)
   DFIELD  = 0.0000000 0.0000000 0.0000000 field for delta impulse in time
 
 Orbital magnetization related:
   ORBITALMAG=     F  switch on orbital magnetization
   LCHIMAG   =     F  perturbation theory with respect to B field
   DQ        =  0.001000  dq finite difference perturbation B field
   LLRAUG    =     F  two centre corrections for induced B field



--------------------------------------------------------------------------------------------------------


 conjugate gradient relaxation of ions
   using selective dynamics as specified on POSCAR
   WARNING: If single coordinates had been selected the selection of coordinates
            is made according to the corresponding   d i r e c t   coordinates!
            Don't support selection of single cartesian coordinates -- sorry ...
  !
 charge density and potential will be updated during run
 non-spin polarized calculation
 RMM-DIIS sequential band-by-band and
  variant of blocked Davidson during initial phase
 perform sub-space diagonalisation
    before iterative eigenvector-optimisation
 modified Broyden-mixing scheme, WC =      100.0
 initial mixing is a Kerker type mixing with AMIX =  0.4000 and BMIX =      1.0000
 Hartree-type preconditioning will be used
 using additional bands           22
 real space projection scheme for non local part
 use partial core corrections
 calculate Harris-corrections to forces 
   (improved forces if not selfconsistent)
 use gradient corrections 
 use of overlap-Matrix (Vanderbilt PP)
 Gauss-broadening in eV      SIGMA  =   0.03


--------------------------------------------------------------------------------------------------------


  energy-cutoff  :      450.00
  volume of cell :     8000.00
      direct lattice vectors                 reciprocal lattice vectors
    20.000000000  0.000000000  0.000000000     0.050000000  0.000000000  0.000000000
     0.000000000 20.000000000  0.000000000     0.000000000  0.050000000  0.000000000
     0.000000000  0.000000000 20.000000000     0.000000000  0.000000000  0.050000000

  length of vectors
    20.000000000 20.000000000 20.000000000     0.050000000  0.050000000  0.050000000


 
 k-points in units of 2pi/SCALE and weight: K-POINTS                                
   0.00000000  0.00000000  0.00000000       1.000
 
 k-points in reciprocal lattice and weights: K-POINTS                                
   0.00000000  0.00000000  0.00000000       1.000
 
 position of ions in fractional coordinates (direct lattice) 
   0.36066828  0.40338328  0.47748454
   0.40952179  0.43499046  0.51563729
   0.43977207  0.49398706  0.49216613
   0.41979174  0.52039695  0.43071278
   0.37045561  0.48893772  0.39237247
   0.34064309  0.43039730  0.41531155
   0.34942829  0.31279220  0.55476545
   0.49456064  0.52748353  0.53131742
   0.56320337  0.49206905  0.52762219
   0.65049182  0.48352564  0.44653149
   0.66763363  0.42617220  0.41088266
   0.70090568  0.52911521  0.46618036
   0.73433225  0.41277123  0.39450387
   0.76765744  0.51526440  0.45012150
   0.78412804  0.45727236  0.41451044
   0.56250687  0.41878535  0.54995884
   0.72961368  0.63350703  0.51617936
   0.42448210  0.41411100  0.56367081
   0.44333337  0.56603238  0.41229489
   0.35456390  0.50938323  0.34439252
   0.27829945  0.35958283  0.40259279
   0.33982024  0.34484749  0.59859654
   0.31986995  0.26677498  0.55845826
   0.40318778  0.30072680  0.55259090
   0.50179684  0.57829011  0.51109248
   0.59815840  0.52038665  0.55977504
   0.50715049  0.55866074  0.62436224
   0.62740153  0.39243489  0.39608687
   0.74706912  0.36775472  0.36646938
   0.80710619  0.54976709  0.46488482
   0.83639686  0.44743538  0.40239095
   0.52900125  0.39038736  0.51634823
   0.61328875  0.39816708  0.54477159
   0.50948306  0.44559244  0.62735025
   0.75524272  0.65176164  0.47085867
   0.70299218  0.67482490  0.54042045
   0.76703061  0.61245645  0.55083728
   0.29249172  0.39930578  0.37784132
   0.32832212  0.34500531  0.49452697
   0.58385611  0.49709984  0.45867790
   0.47423115  0.53117937  0.60119220
   0.54327592  0.41107975  0.61844794
   0.67975939  0.58515592  0.49955399
 
 position of ions in cartesian coordinates  (Angst):
   7.21336570  8.06766568  9.54969082
   8.19043579  8.69980921 10.31274581
   8.79544138  9.87974113  9.84332262
   8.39583487 10.40793904  8.61425554
   7.40911225  9.77875435  7.84744937
   6.81286190  8.60794599  8.30623103
   6.98856576  6.25584404 11.09530896
   9.89121281 10.54967052 10.62634838
  11.26406749  9.84138102 10.55244382
  13.00983636  9.67051273  8.93062986
  13.35267267  8.52344393  8.21765319
  14.01811355 10.58230410  9.32360718
  14.68664493  8.25542459  7.89007734
  15.35314887 10.30528802  9.00243001
  15.68256073  9.14544727  8.29020879
  11.25013750  8.37570695 10.99917690
  14.59227365 12.67014061 10.32358723
   8.48964198  8.28222009 11.27341611
   8.86666732 11.32064770  8.24589790
   7.09127797 10.18766461  6.88785031
   5.56598899  7.19165663  8.05185590
   6.79640482  6.89694974 11.97193075
   6.39739893  5.33549963 11.16916510
   8.06375558  6.01453593 11.05181791
  10.03593679 11.56580230 10.22184969
  11.96316800 10.40773304 11.19550082
  10.14300977 11.17321474 12.48724470
  12.54803067  7.84869773  7.92173737
  14.94138232  7.35509441  7.32938763
  16.14212382 10.99534170  9.29769638
  16.72793721  8.94870763  8.04781908
  10.58002503  7.80774710 10.32696452
  12.26577505  7.96334167 10.89543181
  10.18966113  8.91184885 12.54700497
  15.10485446 13.03523286  9.41717340
  14.05984364 13.49649796 10.80840898
  15.34061220 12.24912899 11.01674561
   5.84983431  7.98611568  7.55682636
   6.56644248  6.90010622  9.89053944
  11.67712227  9.94199688  9.17355798
   9.48462293 10.62358741 12.02384393
  10.86551847  8.22159500 12.36895882
  13.59518774 11.70311841  9.99107981
 


--------------------------------------------------------------------------------------------------------


 k-point  1 :   0.0000 0.0000 0.0000  plane waves:  173541

 maximum and minimum number of plane-waves per node :    173541   173541

 maximum number of plane-waves:    173541
 maximum index in each direction: 
   IXMAX=   34   IYMAX=   34   IZMAX=   34
   IXMIN=  -34   IYMIN=  -34   IZMIN=  -34


 serial   3D FFT for wavefunctions
 parallel 3D FFT for charge:
    minimum data exchange during FFTs selected (reduces bandwidth)


 total amount of memory used by VASP MPI-rank0   191684. kBytes
=======================================================================

   base      :      30000. kBytes
   nonlr-proj:       3854. kBytes
   fftplans  :      33533. kBytes
   grid      :     104696. kBytes
   one-center:        132. kBytes
   wavefun   :      19469. kBytes
 
     INWAV:  cpu time    0.0000: real time    0.0001
 Broyden mixing: mesh for mixing (old mesh)
   NGX = 69   NGY = 69   NGZ = 69
  (NGX  =216   NGY  =216   NGZ  =216)
  gives a total of 328509 points

 initial charge density was supplied:
 charge density of overlapping atoms calculated
 number of electron     124.0000000 magnetization 
 keeping initial charge density in first step


--------------------------------------------------------------------------------------------------------


 Maximum index for non-local projection operator         1192
 Maximum index for augmentation-charges          190 (set IRDMAX)


--------------------------------------------------------------------------------------------------------


 First call to EWALD:  gamma=   0.089
 Maximum number of real-space cells 3x 3x 3
 Maximum number of reciprocal cells 3x 3x 3

    FEWALD:  cpu time    0.0030: real time    0.0035


--------------------------------------- Iteration      1(   1)  ---------------------------------------


    POTLOK:  cpu time    1.4198: real time    1.4252
    SETDIJ:  cpu time    0.0080: real time    0.0087
     EDDAV:  cpu time    8.0158: real time    8.0398
       DOS:  cpu time    0.0010: real time    0.0008
    --------------------------------------------
      LOOP:  cpu time    9.4446: real time    9.4745

 eigenvalue-minimisations  :   216
 total energy-change (2. order) : 0.1074220E+04  (-0.3036316E+04)
 number of electron     124.0000000 magnetization 
 augmentation part      124.0000000 magnetization 

 Free energy of the ion-electron system (eV)
  ---------------------------------------------------
  alpha Z        PSCENC =         8.32042091
  Ewald energy   TEWEN  =     13571.46252061
  -Hartree energ DENC   =    -17482.71855880
  -exchange      EXHF   =         0.00000000
  -V(xc)+E(xc)   XCENC  =       436.74503215
  PAW double counting   =      3966.85219852    -3987.50167695
  entropy T*S    EENTRO =        -0.01499633
  eigenvalues    EBANDS =      -784.09654120
  atomic energy  EATOM  =      5345.17153341
  Solvation  Ediel_sol  =         0.00000000
  ---------------------------------------------------
  free energy    TOTEN  =      1074.21993232 eV

  energy without entropy =     1074.23492865  energy(sigma->0) =     1074.22743049


--------------------------------------------------------------------------------------------------------




--------------------------------------- Iteration      1(   2)  ---------------------------------------


     EDDAV:  cpu time   10.1125: real time   10.1417
       DOS:  cpu time    0.0010: real time    0.0008
    --------------------------------------------
      LOOP:  cpu time   10.1135: real time   10.1424

 eigenvalue-minimisations  :   288
 total energy-change (2. order) :-0.7815771E+03  (-0.7301059E+03)
 number of electron     124.0000000 magnetization 
 augmentation part      124.0000000 magnetization 

 Free energy of the ion-electron system (eV)
  ---------------------------------------------------
  alpha Z        PSCENC =         8.32042091
  Ewald energy   TEWEN  =     13571.46252061
  -Hartree energ DENC   =    -17482.71855880
  -exchange      EXHF   =         0.00000000
  -V(xc)+E(xc)   XCENC  =       436.74503215
  PAW double counting   =      3966.85219852    -3987.50167695
  entropy T*S    EENTRO =        -0.00164664
  eigenvalues    EBANDS =     -1565.68701226
  atomic energy  EATOM  =      5345.17153341
  Solvation  Ediel_sol  =         0.00000000
  ---------------------------------------------------
  free energy    TOTEN  =       292.64281095 eV

  energy without entropy =      292.64445759  energy(sigma->0) =      292.64363427


--------------------------------------------------------------------------------------------------------




--------------------------------------- Iteration      1(   3)  ---------------------------------------


     EDDAV:  cpu time    8.7107: real time    8.7380
       DOS:  cpu time    0.0010: real time    0.0006
    --------------------------------------------
      LOOP:  cpu time    8.7117: real time    8.7386

 eigenvalue-minimisations  :   240
 total energy-change (2. order) :-0.5028022E+03  (-0.4972140E+03)
 number of electron     124.0000000 magnetization 
 augmentation part      124.0000000 magnetization 

 Free energy of the ion-electron system (eV)
  ---------------------------------------------------
  alpha Z        PSCENC =         8.32042091
  Ewald energy   TEWEN  =     13571.46252061
  -Hartree energ DENC   =    -17482.71855880
  -exchange      EXHF   =         0.00000000
  -V(xc)+E(xc)   XCENC  =       436.74503215
  PAW double counting   =      3966.85219852    -3987.50167695
  entropy T*S    EENTRO =        -0.00000000
  eigenvalues    EBANDS =     -2068.49087049
  atomic energy  EATOM  =      5345.17153341
  Solvation  Ediel_sol  =         0.00000000
  ---------------------------------------------------
  free energy    TOTEN  =      -210.15940064 eV

  energy without entropy =     -210.15940064  energy(sigma->0) =     -210.15940064


--------------------------------------------------------------------------------------------------------




--------------------------------------- Iteration      1(   4)  ---------------------------------------


     EDDAV:  cpu time    7.6798: real time    7.7060
       DOS:  cpu time    0.0010: real time    0.0007
    --------------------------------------------
      LOOP:  cpu time    7.6808: real time    7.7066

 eigenvalue-minimisations  :   204
 total energy-change (2. order) :-0.7657181E+02  (-0.7629848E+02)
 number of electron     124.0000000 magnetization 
 augmentation part      124.0000000 magnetization 

 Free energy of the ion-electron system (eV)
  ---------------------------------------------------
  alpha Z        PSCENC =         8.32042091
  Ewald energy   TEWEN  =     13571.46252061
  -Hartree energ DENC   =    -17482.71855880
  -exchange      EXHF   =         0.00000000
  -V(xc)+E(xc)   XCENC  =       436.74503215
  PAW double counting   =      3966.85219852    -3987.50167695
  entropy T*S    EENTRO =        -0.00000000
  eigenvalues    EBANDS =     -2145.06268056
  atomic energy  EATOM  =      5345.17153341
  Solvation  Ediel_sol  =         0.00000000
  ---------------------------------------------------
  free energy    TOTEN  =      -286.73121071 eV

  energy without entropy =     -286.73121071  energy(sigma->0) =     -286.73121071


--------------------------------------------------------------------------------------------------------




--------------------------------------- Iteration      1(   5)  ---------------------------------------


     EDDAV:  cpu time    7.6558: real time    7.6782
       DOS:  cpu time    0.0010: real time    0.0007
    --------------------------------------------
      LOOP:  cpu time    7.6568: real time    7.6789

 eigenvalue-minimisations  :   204
 total energy-change (2. order) :-0.1656415E+01  (-0.1637079E+01)
 number of electron     124.0000000 magnetization 
 augmentation part      124.0000000 magnetization 

 Free energy of the ion-electron system (eV)
  ---------------------------------------------------
  alpha Z        PSCENC =         8.32042091
  Ewald energy   TEWEN  =     13571.46252061
  -Hartree energ DENC   =    -17482.71855880
  -exchange      EXHF   =         0.00000000
  -V(xc)+E(xc)   XCENC  =       436.74503215
  PAW double counting   =      3966.85219852    -3987.50167695
  entropy T*S    EENTRO =        -0.00000000
  eigenvalues    EBANDS =     -2146.71909573
  atomic energy  EATOM  =      5345.17153341
  Solvation  Ediel_sol  =         0.00000000
  ---------------------------------------------------
  free energy    TOTEN  =      -288.38762588 eV

  energy without entropy =     -288.38762588  energy(sigma->0) =     -288.38762588


--------------------------------------------------------------------------------------------------------




--------------------------------------- Iteration      1(   6)  ---------------------------------------


     EDDAV:  cpu time    8.0128: real time    8.0367
       DOS:  cpu time    0.0000: real time    0.0007
    --------------------------------------------
      LOOP:  cpu time    8.0128: real time    8.0374

 eigenvalue-minimisations  :   216
 total energy-change (2. order) :-0.5577475E-01  (-0.5568225E-01)
 number of electron     124.0000000 magnetization 
 augmentation part      124.0000000 magnetization 

 Free energy of the ion-electron system (eV)
  ---------------------------------------------------
  alpha Z        PSCENC =         8.32042091
  Ewald energy   TEWEN  =     13571.46252061
  -Hartree energ DENC   =    -17482.71855880
  -exchange      EXHF   =         0.00000000
  -V(xc)+E(xc)   XCENC  =       436.74503215
  PAW double counting   =      3966.85219852    -3987.50167695
  entropy T*S    EENTRO =        -0.00000000
  eigenvalues    EBANDS =     -2146.77487048
  atomic energy  EATOM  =      5345.17153341
  Solvation  Ediel_sol  =         0.00000000
  ---------------------------------------------------
  free energy    TOTEN  =      -288.44340063 eV

  energy without entropy =     -288.44340063  energy(sigma->0) =     -288.44340063


--------------------------------------------------------------------------------------------------------




--------------------------------------- Iteration      1(   7)  ---------------------------------------


     EDDAV:  cpu time    8.7067: real time    8.7323
       DOS:  cpu time    0.0010: real time    0.0007
    CHARGE:  cpu time    0.6249: real time    0.6269
    MIXING:  cpu time    0.0360: real time    0.0356
    --------------------------------------------
      LOOP:  cpu time    9.3686: real time    9.3954

 eigenvalue-minimisations  :   240
 total energy-change (2. order) :-0.1285596E-02  (-0.1283974E-02)
 number of electron     124.0000033 magnetization 
 augmentation part        6.5414590 magnetization 

 Broyden mixing:
  rms(total) = 0.26818E+01    rms(broyden)= 0.26793E+01
  rms(prec ) = 0.29031E+01
  weight for this iteration     100.00

 Free energy of the ion-electron system (eV)
  ---------------------------------------------------
  alpha Z        PSCENC =         8.32042091
  Ewald energy   TEWEN  =     13571.46252061
  -Hartree energ DENC   =    -17482.71855880
  -exchange      EXHF   =         0.00000000
  -V(xc)+E(xc)   XCENC  =       436.74503215
  PAW double counting   =      3966.85219852    -3987.50167695
  entropy T*S    EENTRO =        -0.00000000
  eigenvalues    EBANDS =     -2146.77615608
  atomic energy  EATOM  =      5345.17153341
  Solvation  Ediel_sol  =         0.00000000
  ---------------------------------------------------
  free energy    TOTEN  =      -288.44468623 eV

  energy without entropy =     -288.44468623  energy(sigma->0) =     -288.44468623


--------------------------------------------------------------------------------------------------------




--------------------------------------- Iteration      1(   8)  ---------------------------------------


    POTLOK:  cpu time    1.2958: real time    1.3013
    SETDIJ:  cpu time    0.0090: real time    0.0092
    EDDIAG:  cpu time    1.3218: real time    1.3273
  RMM-DIIS:  cpu time    4.4023: real time    4.4150
    ORTHCH:  cpu time    0.2660: real time    0.2661
       DOS:  cpu time    0.0000: real time    0.0004
    CHARGE:  cpu time    0.6149: real time    0.6168
    MIXING:  cpu time    0.0380: real time    0.0378
    --------------------------------------------
      LOOP:  cpu time    7.9478: real time    7.9739

 eigenvalue-minimisations  :   168
 total energy-change (2. order) : 0.1812953E+02  (-0.3290488E+01)
 number of electron     124.0000030 magnetization 
 augmentation part        6.1177357 magnetization 

 Broyden mixing:
  rms(total) = 0.14323E+01    rms(broyden)= 0.14321E+01
  rms(prec ) = 0.15302E+01
  weight for this iteration     100.00

 eigenvalues of (default mixing * dielectric matrix)
  average eigenvalue GAMMA=   1.5683
  1.5683

 Free energy of the ion-electron system (eV)
  ---------------------------------------------------
  alpha Z        PSCENC =         8.32042091
  Ewald energy   TEWEN  =     13571.46252061
  -Hartree energ DENC   =    -17706.05645411
  -exchange      EXHF   =         0.00000000
  -V(xc)+E(xc)   XCENC  =       447.81587694
  PAW double counting   =      5996.14401098    -6019.60026909
  entropy T*S    EENTRO =        -0.00000000
  eigenvalues    EBANDS =     -1913.57279632
  atomic energy  EATOM  =      5345.17153341
  Solvation  Ediel_sol  =         0.00000000
  ---------------------------------------------------
  free energy    TOTEN  =      -270.31515668 eV

  energy without entropy =     -270.31515668  energy(sigma->0) =     -270.31515668


--------------------------------------------------------------------------------------------------------




--------------------------------------- Iteration      1(   9)  ---------------------------------------


    POTLOK:  cpu time    1.3008: real time    1.3041
    SETDIJ:  cpu time    0.0110: real time    0.0109
    EDDIAG:  cpu time    1.3238: real time    1.3282
  RMM-DIIS:  cpu time    4.3203: real time    4.3338
    ORTHCH:  cpu time    0.2670: real time    0.2675
       DOS:  cpu time    0.0000: real time    0.0002
    CHARGE:  cpu time    0.6159: real time    0.6176
    MIXING:  cpu time    0.0400: real time    0.0402
    --------------------------------------------
      LOOP:  cpu time    7.8788: real time    7.9024

 eigenvalue-minimisations  :   168
 total energy-change (2. order) : 0.4366797E+01  (-0.1369322E+01)
 number of electron     124.0000029 magnetization 
 augmentation part        5.9365739 magnetization 

 Broyden mixing:
  rms(total) = 0.58668E+00    rms(broyden)= 0.58651E+00
  rms(prec ) = 0.61777E+00
  weight for this iteration     100.00

 eigenvalues of (default mixing * dielectric matrix)
  average eigenvalue GAMMA=   1.7158
  1.2983  2.1334

 Free energy of the ion-electron system (eV)
  ---------------------------------------------------
  alpha Z        PSCENC =         8.32042091
  Ewald energy   TEWEN  =     13571.46252061
  -Hartree energ DENC   =    -17880.31967205
  -exchange      EXHF   =         0.00000000
  -V(xc)+E(xc)   XCENC  =       456.14852744
  PAW double counting   =      8503.98971607    -8528.65435870
  entropy T*S    EENTRO =        -0.00000000
  eigenvalues    EBANDS =     -1742.06704781
  atomic energy  EATOM  =      5345.17153341
  Solvation  Ediel_sol  =         0.00000000
  ---------------------------------------------------
  free energy    TOTEN  =      -265.94836013 eV

  energy without entropy =     -265.94836013  energy(sigma->0) =     -265.94836013


--------------------------------------------------------------------------------------------------------




--------------------------------------- Iteration      1(  10)  ---------------------------------------


    POTLOK:  cpu time    1.3118: real time    1.3156
    SETDIJ:  cpu time    0.0110: real time    0.0104
    EDDIAG:  cpu time    1.3218: real time    1.3259
  RMM-DIIS:  cpu time    4.5603: real time    4.5753
    ORTHCH:  cpu time    0.2660: real time    0.2665
       DOS:  cpu time    0.0000: real time    0.0002
    CHARGE:  cpu time    0.6179: real time    0.6192
    MIXING:  cpu time    0.0450: real time    0.0454
    --------------------------------------------
      LOOP:  cpu time    8.1338: real time    8.1584

 eigenvalue-minimisations  :   169
 total energy-change (2. order) : 0.4844006E+00  (-0.1689198E+00)
 number of electron     124.0000029 magnetization 
 augmentation part        5.9101621 magnetization 

 Broyden mixing:
  rms(total) = 0.17182E+00    rms(broyden)= 0.17174E+00
  rms(prec ) = 0.19473E+00
  weight for this iteration     100.00

 eigenvalues of (default mixing * dielectric matrix)
  average eigenvalue GAMMA=   1.7260
  1.1079  2.2196  1.8506

 Free energy of the ion-electron system (eV)
  ---------------------------------------------------
  alpha Z        PSCENC =         8.32042091
  Ewald energy   TEWEN  =     13571.46252061
  -Hartree energ DENC   =    -17945.54208125
  -exchange      EXHF   =         0.00000000
  -V(xc)+E(xc)   XCENC  =       459.03354514
  PAW double counting   =      9922.86259548    -9947.38226682
  entropy T*S    EENTRO =        -0.00000000
  eigenvalues    EBANDS =     -1679.39022705
  atomic energy  EATOM  =      5345.17153341
  Solvation  Ediel_sol  =         0.00000000
  ---------------------------------------------------
  free energy    TOTEN  =      -265.46395958 eV

  energy without entropy =     -265.46395958  energy(sigma->0) =     -265.46395958


--------------------------------------------------------------------------------------------------------




--------------------------------------- Iteration      1(  11)  ---------------------------------------


    POTLOK:  cpu time    1.3258: real time    1.3302
    SETDIJ:  cpu time    0.0100: real time    0.0101
    EDDIAG:  cpu time    1.3238: real time    1.3276
  RMM-DIIS:  cpu time    4.6013: real time    4.6140
    ORTHCH:  cpu time    0.2660: real time    0.2673
       DOS:  cpu time    0.0010: real time    0.0002
    CHARGE:  cpu time    0.6239: real time    0.6263
    MIXING:  cpu time    0.0440: real time    0.0437
    --------------------------------------------
      LOOP:  cpu time    8.1958: real time    8.2194

 eigenvalue-minimisations  :   174
 total energy-change (2. order) : 0.9022900E-01  (-0.2004004E-01)
 number of electron     124.0000029 magnetization 
 augmentation part        5.9009270 magnetization 

 Broyden mixing:
  rms(total) = 0.45625E-01    rms(broyden)= 0.45598E-01
  rms(prec ) = 0.72909E-01
  weight for this iteration     100.00

 eigenvalues of (default mixing * dielectric matrix)
  average eigenvalue GAMMA=   1.6650
  2.1414  2.1414  1.1376  1.2395

 Free energy of the ion-electron system (eV)
  ---------------------------------------------------
  alpha Z        PSCENC =         8.32042091
  Ewald energy   TEWEN  =     13571.46252061
  -Hartree energ DENC   =    -17966.08887800
  -exchange      EXHF   =         0.00000000
  -V(xc)+E(xc)   XCENC  =       459.48164109
  PAW double counting   =     10219.08235246   -10243.36991882
  entropy T*S    EENTRO =        -0.00000000
  eigenvalues    EBANDS =     -1659.43340224
  atomic energy  EATOM  =      5345.17153341
  Solvation  Ediel_sol  =         0.00000000
  ---------------------------------------------------
  free energy    TOTEN  =      -265.37373057 eV

  energy without entropy =     -265.37373057  energy(sigma->0) =     -265.37373057


--------------------------------------------------------------------------------------------------------




--------------------------------------- Iteration      1(  12)  ---------------------------------------


    POTLOK:  cpu time    1.3188: real time    1.3283
    SETDIJ:  cpu time    0.0100: real time    0.0093
    EDDIAG:  cpu time    1.3208: real time    1.3249
  RMM-DIIS:  cpu time    4.7283: real time    4.7415
    ORTHCH:  cpu time    0.2660: real time    0.2662
       DOS:  cpu time    0.0000: real time    0.0005
    CHARGE:  cpu time    0.6149: real time    0.6159
    MIXING:  cpu time    0.0480: real time    0.0487
    --------------------------------------------
      LOOP:  cpu time    8.3067: real time    8.3353

 eigenvalue-minimisations  :   176
 total energy-change (2. order) : 0.1412116E-01  (-0.2311637E-02)
 number of electron     124.0000029 magnetization 
 augmentation part        5.8980161 magnetization 

 Broyden mixing:
  rms(total) = 0.24970E-01    rms(broyden)= 0.24964E-01
  rms(prec ) = 0.49201E-01
  weight for this iteration     100.00

 eigenvalues of (default mixing * dielectric matrix)
  average eigenvalue GAMMA=   1.7773
  2.4975  2.4975  1.0468  1.1936  1.6510

 Free energy of the ion-electron system (eV)
  ---------------------------------------------------
  alpha Z        PSCENC =         8.32042091
  Ewald energy   TEWEN  =     13571.46252061
  -Hartree energ DENC   =    -17980.36424859
  -exchange      EXHF   =         0.00000000
  -V(xc)+E(xc)   XCENC  =       459.60371158
  PAW double counting   =     10192.86020558   -10217.10991946
  entropy T*S    EENTRO =        -0.00000000
  eigenvalues    EBANDS =     -1645.30383346
  atomic energy  EATOM  =      5345.17153341
  Solvation  Ediel_sol  =         0.00000000
  ---------------------------------------------------
  free energy    TOTEN  =      -265.35960942 eV

  energy without entropy =     -265.35960942  energy(sigma->0) =     -265.35960942


--------------------------------------------------------------------------------------------------------




--------------------------------------- Iteration      1(  13)  ---------------------------------------


    POTLOK:  cpu time    1.3278: real time    1.3312
    SETDIJ:  cpu time    0.0090: real time    0.0090
    EDDIAG:  cpu time    1.3328: real time    1.3389
  RMM-DIIS:  cpu time    4.3083: real time    4.3199
    ORTHCH:  cpu time    0.2670: real time    0.2680
       DOS:  cpu time    0.0000: real time    0.0002
    CHARGE:  cpu time    0.6139: real time    0.6158
    MIXING:  cpu time    0.0520: real time    0.0518
    --------------------------------------------
      LOOP:  cpu time    7.9108: real time    7.9348

 eigenvalue-minimisations  :   168
 total energy-change (2. order) : 0.8721429E-02  (-0.2276269E-02)
 number of electron     124.0000029 magnetization 
 augmentation part        5.8961613 magnetization 

 Broyden mixing:
  rms(total) = 0.13933E-01    rms(broyden)= 0.13927E-01
  rms(prec ) = 0.27601E-01
  weight for this iteration     100.00

 eigenvalues of (default mixing * dielectric matrix)
  average eigenvalue GAMMA=   1.8922
  3.2427  2.3500  1.7788  1.7788  1.0249  1.1780

 Free energy of the ion-electron system (eV)
  ---------------------------------------------------
  alpha Z        PSCENC =         8.32042091
  Ewald energy   TEWEN  =     13571.46252061
  -Hartree energ DENC   =    -18002.40327035
  -exchange      EXHF   =         0.00000000
  -V(xc)+E(xc)   XCENC  =       459.85573977
  PAW double counting   =     10173.74110714   -10197.97122057
  entropy T*S    EENTRO =        -0.00000000
  eigenvalues    EBANDS =     -1623.52771891
  atomic energy  EATOM  =      5345.17153341
  Solvation  Ediel_sol  =         0.00000000
  ---------------------------------------------------
  free energy    TOTEN  =      -265.35088799 eV

  energy without entropy =     -265.35088799  energy(sigma->0) =     -265.35088799


--------------------------------------------------------------------------------------------------------




--------------------------------------- Iteration      1(  14)  ---------------------------------------


    POTLOK:  cpu time    1.3378: real time    1.3415
    SETDIJ:  cpu time    0.0080: real time    0.0078
    EDDIAG:  cpu time    1.3238: real time    1.3277
  RMM-DIIS:  cpu time    4.3303: real time    4.3447
    ORTHCH:  cpu time    0.2650: real time    0.2654
       DOS:  cpu time    0.0010: real time    0.0005
    CHARGE:  cpu time    0.6109: real time    0.6131
    MIXING:  cpu time    0.0550: real time    0.0559
    --------------------------------------------
      LOOP:  cpu time    7.9328: real time    7.9567

 eigenvalue-minimisations  :   168
 total energy-change (2. order) :-0.6813487E-02  (-0.1428584E-02)
 number of electron     124.0000029 magnetization 
 augmentation part        5.8920572 magnetization 

 Broyden mixing:
  rms(total) = 0.81181E-02    rms(broyden)= 0.81088E-02
  rms(prec ) = 0.14398E-01
  weight for this iteration     100.00

 eigenvalues of (default mixing * dielectric matrix)
  average eigenvalue GAMMA=   1.8972
  4.1510  2.3676  1.7536  1.7536  0.9996  1.1275  1.1275

 Free energy of the ion-electron system (eV)
  ---------------------------------------------------
  alpha Z        PSCENC =         8.32042091
  Ewald energy   TEWEN  =     13571.46252061
  -Hartree energ DENC   =    -18017.88735528
  -exchange      EXHF   =         0.00000000
  -V(xc)+E(xc)   XCENC  =       460.01811191
  PAW double counting   =     10162.27558803   -10186.50762718
  entropy T*S    EENTRO =        -0.00000000
  eigenvalues    EBANDS =     -1608.21089389
  atomic energy  EATOM  =      5345.17153341
  Solvation  Ediel_sol  =         0.00000000
  ---------------------------------------------------
  free energy    TOTEN  =      -265.35770147 eV

  energy without entropy =     -265.35770147  energy(sigma->0) =     -265.35770147


--------------------------------------------------------------------------------------------------------




--------------------------------------- Iteration      1(  15)  ---------------------------------------


    POTLOK:  cpu time    1.3348: real time    1.3377
    SETDIJ:  cpu time    0.0110: real time    0.0111
    EDDIAG:  cpu time    1.3258: real time    1.3293
  RMM-DIIS:  cpu time    4.5663: real time    4.5817
    ORTHCH:  cpu time    0.2660: real time    0.2673
       DOS:  cpu time    0.0000: real time    0.0002
    CHARGE:  cpu time    0.6149: real time    0.6156
    MIXING:  cpu time    0.0590: real time    0.0595
    --------------------------------------------
      LOOP:  cpu time    8.1768: real time    8.2025

 eigenvalue-minimisations  :   173
 total energy-change (2. order) :-0.6783038E-02  (-0.3028885E-03)
 number of electron     124.0000029 magnetization 
 augmentation part        5.8922422 magnetization 

 Broyden mixing:
  rms(total) = 0.54391E-02    rms(broyden)= 0.54355E-02
  rms(prec ) = 0.95853E-02
  weight for this iteration     100.00

 eigenvalues of (default mixing * dielectric matrix)
  average eigenvalue GAMMA=   2.1262
  5.6691  2.5224  2.0691  2.0691  1.5546  0.9706  1.0773  1.0773

 Free energy of the ion-electron system (eV)
  ---------------------------------------------------
  alpha Z        PSCENC =         8.32042091
  Ewald energy   TEWEN  =     13571.46252061
  -Hartree energ DENC   =    -18022.79526688
  -exchange      EXHF   =         0.00000000
  -V(xc)+E(xc)   XCENC  =       460.02636094
  PAW double counting   =     10148.27792603   -10172.50578592
  entropy T*S    EENTRO =        -0.00000000
  eigenvalues    EBANDS =     -1603.32219360
  atomic energy  EATOM  =      5345.17153341
  Solvation  Ediel_sol  =         0.00000000
  ---------------------------------------------------
  free energy    TOTEN  =      -265.36448451 eV

  energy without entropy =     -265.36448451  energy(sigma->0) =     -265.36448451


--------------------------------------------------------------------------------------------------------




--------------------------------------- Iteration      1(  16)  ---------------------------------------


    POTLOK:  cpu time    1.3348: real time    1.3395
    SETDIJ:  cpu time    0.0100: real time    0.0098
    EDDIAG:  cpu time    1.3218: real time    1.3254
  RMM-DIIS:  cpu time    4.3463: real time    4.3595
    ORTHCH:  cpu time    0.2670: real time    0.2680
       DOS:  cpu time    0.0010: real time    0.0002
    CHARGE:  cpu time    0.6089: real time    0.6130
    MIXING:  cpu time    0.0650: real time    0.0650
    --------------------------------------------
      LOOP:  cpu time    7.9548: real time    7.9805

 eigenvalue-minimisations  :   168
 total energy-change (2. order) :-0.1469437E-01  (-0.2208919E-03)
 number of electron     124.0000029 magnetization 
 augmentation part        5.8924765 magnetization 

 Broyden mixing:
  rms(total) = 0.34359E-02    rms(broyden)= 0.34348E-02
  rms(prec ) = 0.54100E-02
  weight for this iteration     100.00

 eigenvalues of (default mixing * dielectric matrix)
  average eigenvalue GAMMA=   2.0712
  5.8922  2.7662  2.3300  1.8019  1.3383  1.3383  1.1770  0.9594  1.0376

 Free energy of the ion-electron system (eV)
  ---------------------------------------------------
  alpha Z        PSCENC =         8.32042091
  Ewald energy   TEWEN  =     13571.46252061
  -Hartree energ DENC   =    -18026.20642828
  -exchange      EXHF   =         0.00000000
  -V(xc)+E(xc)   XCENC  =       460.00953011
  PAW double counting   =     10146.81510190   -10171.03874428
  entropy T*S    EENTRO =        -0.00000000
  eigenvalues    EBANDS =     -1599.91311327
  atomic energy  EATOM  =      5345.17153341
  Solvation  Ediel_sol  =         0.00000000
  ---------------------------------------------------
  free energy    TOTEN  =      -265.37917888 eV

  energy without entropy =     -265.37917888  energy(sigma->0) =     -265.37917888


--------------------------------------------------------------------------------------------------------




--------------------------------------- Iteration      1(  17)  ---------------------------------------


    POTLOK:  cpu time    1.3308: real time    1.3346
    SETDIJ:  cpu time    0.0090: real time    0.0089
    EDDIAG:  cpu time    1.3258: real time    1.3295
  RMM-DIIS:  cpu time    4.5903: real time    4.6033
    ORTHCH:  cpu time    0.2660: real time    0.2667
       DOS:  cpu time    0.0010: real time    0.0004
    CHARGE:  cpu time    0.6119: real time    0.6136
    MIXING:  cpu time    0.0690: real time    0.0695
    --------------------------------------------
      LOOP:  cpu time    8.2038: real time    8.2265

 eigenvalue-minimisations  :   173
 total energy-change (2. order) :-0.5061624E-02  (-0.7669762E-04)
 number of electron     124.0000029 magnetization 
 augmentation part        5.8915980 magnetization 

 Broyden mixing:
  rms(total) = 0.22565E-02    rms(broyden)= 0.22557E-02
  rms(prec ) = 0.37099E-02
  weight for this iteration     100.00

 eigenvalues of (default mixing * dielectric matrix)
  average eigenvalue GAMMA=   2.2311
  6.7997  3.4170  2.3239  2.3239  1.7914  1.4968  1.0730  1.0219  1.0318  1.0318

 Free energy of the ion-electron system (eV)
  ---------------------------------------------------
  alpha Z        PSCENC =         8.32042091
  Ewald energy   TEWEN  =     13571.46252061
  -Hartree energ DENC   =    -18027.29178273
  -exchange      EXHF   =         0.00000000
  -V(xc)+E(xc)   XCENC  =       460.01598384
  PAW double counting   =     10149.96614904   -10174.19382419
  entropy T*S    EENTRO =        -0.00000000
  eigenvalues    EBANDS =     -1598.83524140
  atomic energy  EATOM  =      5345.17153341
  Solvation  Ediel_sol  =         0.00000000
  ---------------------------------------------------
  free energy    TOTEN  =      -265.38424051 eV

  energy without entropy =     -265.38424051  energy(sigma->0) =     -265.38424051


--------------------------------------------------------------------------------------------------------




--------------------------------------- Iteration      1(  18)  ---------------------------------------


    POTLOK:  cpu time    1.3228: real time    1.3260
    SETDIJ:  cpu time    0.0090: real time    0.0093
    EDDIAG:  cpu time    1.3188: real time    1.3238
  RMM-DIIS:  cpu time    4.3283: real time    4.3410
    ORTHCH:  cpu time    0.2670: real time    0.2674
       DOS:  cpu time    0.0000: real time    0.0002
    CHARGE:  cpu time    0.6079: real time    0.6093
    MIXING:  cpu time    0.0790: real time    0.0790
    --------------------------------------------
      LOOP:  cpu time    7.9328: real time    7.9560

 eigenvalue-minimisations  :   162
 total energy-change (2. order) :-0.6511182E-02  (-0.9590493E-04)
 number of electron     124.0000029 magnetization 
 augmentation part        5.8916465 magnetization 

 Broyden mixing:
  rms(total) = 0.11452E-02    rms(broyden)= 0.11450E-02
  rms(prec ) = 0.17568E-02
  weight for this iteration     100.00

 eigenvalues of (default mixing * dielectric matrix)
  average eigenvalue GAMMA=   2.2046
  6.9991  4.0008  2.3125  2.3125  1.8454  1.2471  1.2471  1.0259  1.0259  1.1170
  1.1170

 Free energy of the ion-electron system (eV)
  ---------------------------------------------------
  alpha Z        PSCENC =         8.32042091
  Ewald energy   TEWEN  =     13571.46252061
  -Hartree energ DENC   =    -18027.59605743
  -exchange      EXHF   =         0.00000000
  -V(xc)+E(xc)   XCENC  =       459.99129694
  PAW double counting   =     10150.39872170   -10174.62437984
  entropy T*S    EENTRO =        -0.00000000
  eigenvalues    EBANDS =     -1598.51480799
  atomic energy  EATOM  =      5345.17153341
  Solvation  Ediel_sol  =         0.00000000
  ---------------------------------------------------
  free energy    TOTEN  =      -265.39075169 eV

  energy without entropy =     -265.39075169  energy(sigma->0) =     -265.39075169


--------------------------------------------------------------------------------------------------------




--------------------------------------- Iteration      1(  19)  ---------------------------------------


    POTLOK:  cpu time    1.3208: real time    1.3244
    SETDIJ:  cpu time    0.0090: real time    0.0097
    EDDIAG:  cpu time    1.3248: real time    1.3284
  RMM-DIIS:  cpu time    4.2064: real time    4.2197
    ORTHCH:  cpu time    0.2710: real time    0.2717
       DOS:  cpu time    0.0000: real time    0.0003
    CHARGE:  cpu time    0.6109: real time    0.6126
    MIXING:  cpu time    0.0800: real time    0.0807
    --------------------------------------------
      LOOP:  cpu time    7.8228: real time    7.8474

 eigenvalue-minimisations  :   156
 total energy-change (2. order) :-0.1016250E-02  (-0.1867026E-04)
 number of electron     124.0000029 magnetization 
 augmentation part        5.8917391 magnetization 

 Broyden mixing:
  rms(total) = 0.66241E-03    rms(broyden)= 0.66219E-03
  rms(prec ) = 0.11457E-02
  weight for this iteration     100.00

 eigenvalues of (default mixing * dielectric matrix)
  average eigenvalue GAMMA=   2.2883
  7.2828  4.9120  2.4023  2.4023  2.2303  1.6700  1.1474  1.1474  1.2067  1.1427
  0.9578  0.9578

 Free energy of the ion-electron system (eV)
  ---------------------------------------------------
  alpha Z        PSCENC =         8.32042091
  Ewald energy   TEWEN  =     13571.46252061
  -Hartree energ DENC   =    -18027.81298818
  -exchange      EXHF   =         0.00000000
  -V(xc)+E(xc)   XCENC  =       459.99092202
  PAW double counting   =     10151.22548647   -10175.45049147
  entropy T*S    EENTRO =        -0.00000000
  eigenvalues    EBANDS =     -1598.29917170
  atomic energy  EATOM  =      5345.17153341
  Solvation  Ediel_sol  =         0.00000000
  ---------------------------------------------------
  free energy    TOTEN  =      -265.39176794 eV

  energy without entropy =     -265.39176794  energy(sigma->0) =     -265.39176794


--------------------------------------------------------------------------------------------------------




--------------------------------------- Iteration      1(  20)  ---------------------------------------


    POTLOK:  cpu time    1.3178: real time    1.3231
    SETDIJ:  cpu time    0.0080: real time    0.0078
    EDDIAG:  cpu time    1.3228: real time    1.3258
  RMM-DIIS:  cpu time    3.7444: real time    3.7559
    ORTHCH:  cpu time    0.2660: real time    0.2669
       DOS:  cpu time    0.0010: real time    0.0002
    CHARGE:  cpu time    0.6199: real time    0.6220
    MIXING:  cpu time    0.0870: real time    0.0866
    --------------------------------------------
      LOOP:  cpu time    7.3669: real time    7.3884

 eigenvalue-minimisations  :   141
 total energy-change (2. order) :-0.1222129E-02  (-0.9301550E-05)
 number of electron     124.0000029 magnetization 
 augmentation part        5.8916637 magnetization 

 Broyden mixing:
  rms(total) = 0.35001E-03    rms(broyden)= 0.34993E-03
  rms(prec ) = 0.58101E-03
  weight for this iteration     100.00

 eigenvalues of (default mixing * dielectric matrix)
  average eigenvalue GAMMA=   2.2816
  7.7635  5.1801  2.8143  2.4051  1.9467  1.9467  1.2321  1.2321  1.1168  1.0395
  1.0395  1.0100  0.9338

 Free energy of the ion-electron system (eV)
  ---------------------------------------------------
  alpha Z        PSCENC =         8.32042091
  Ewald energy   TEWEN  =     13571.46252061
  -Hartree energ DENC   =    -18027.89127229
  -exchange      EXHF   =         0.00000000
  -V(xc)+E(xc)   XCENC  =       459.98922440
  PAW double counting   =     10150.41267529   -10174.63836131
  entropy T*S    EENTRO =        -0.00000000
  eigenvalues    EBANDS =     -1598.21973109
  atomic energy  EATOM  =      5345.17153341
  Solvation  Ediel_sol  =         0.00000000
  ---------------------------------------------------
  free energy    TOTEN  =      -265.39299007 eV

  energy without entropy =     -265.39299007  energy(sigma->0) =     -265.39299007


--------------------------------------------------------------------------------------------------------




--------------------------------------- Iteration      1(  21)  ---------------------------------------


    POTLOK:  cpu time    1.3158: real time    1.3202
    SETDIJ:  cpu time    0.0110: real time    0.0105
    EDDIAG:  cpu time    1.3238: real time    1.3269
  RMM-DIIS:  cpu time    3.0635: real time    3.0717
    ORTHCH:  cpu time    0.2710: real time    0.2708
       DOS:  cpu time    0.0000: real time    0.0003
    CHARGE:  cpu time    0.6149: real time    0.6159
    MIXING:  cpu time    0.0940: real time    0.0947
    --------------------------------------------
      LOOP:  cpu time    6.6940: real time    6.7110

 eigenvalue-minimisations  :   108
 total energy-change (2. order) :-0.2664397E-03  (-0.1320606E-05)
 number of electron     124.0000029 magnetization 
 augmentation part        5.8916572 magnetization 

 Broyden mixing:
  rms(total) = 0.22049E-03    rms(broyden)= 0.22045E-03
  rms(prec ) = 0.38556E-03
  weight for this iteration     100.00

 eigenvalues of (default mixing * dielectric matrix)
  average eigenvalue GAMMA=   2.3583
  7.9579  5.8309  3.2031  2.3062  2.3062  2.1586  1.7399  1.1726  1.1726  1.1665
  1.0460  1.0460  0.9950  0.9143

 Free energy of the ion-electron system (eV)
  ---------------------------------------------------
  alpha Z        PSCENC =         8.32042091
  Ewald energy   TEWEN  =     13571.46252061
  -Hartree energ DENC   =    -18027.96016859
  -exchange      EXHF   =         0.00000000
  -V(xc)+E(xc)   XCENC  =       459.98896153
  PAW double counting   =     10150.21973549   -10174.44504536
  entropy T*S    EENTRO =        -0.00000000
  eigenvalues    EBANDS =     -1598.15121450
  atomic energy  EATOM  =      5345.17153341
  Solvation  Ediel_sol  =         0.00000000
  ---------------------------------------------------
  free energy    TOTEN  =      -265.39325651 eV

  energy without entropy =     -265.39325651  energy(sigma->0) =     -265.39325651


--------------------------------------------------------------------------------------------------------




--------------------------------------- Iteration      1(  22)  ---------------------------------------


    POTLOK:  cpu time    1.3208: real time    1.3240
    SETDIJ:  cpu time    0.0100: real time    0.0105
    EDDIAG:  cpu time    1.3188: real time    1.3238
  RMM-DIIS:  cpu time    2.9106: real time    2.9211
    ORTHCH:  cpu time    0.2650: real time    0.2664
       DOS:  cpu time    0.0010: real time    0.0004
    CHARGE:  cpu time    0.6119: real time    0.6134
    MIXING:  cpu time    0.1010: real time    0.1019
    --------------------------------------------
      LOOP:  cpu time    6.5390: real time    6.5615

 eigenvalue-minimisations  :   101
 total energy-change (2. order) :-0.2762195E-03  (-0.1122560E-05)
 number of electron     124.0000029 magnetization 
 augmentation part        5.8916633 magnetization 

 Broyden mixing:
  rms(total) = 0.11061E-03    rms(broyden)= 0.11055E-03
  rms(prec ) = 0.18012E-03
  weight for this iteration     100.00

 eigenvalues of (default mixing * dielectric matrix)
  average eigenvalue GAMMA=   2.3764
  8.3061  6.0688  3.7624  2.5436  2.2546  1.8450  1.8450  1.3719  1.3719  1.1430
  1.1430  1.0402  1.0402  0.9554  0.9554

 Free energy of the ion-electron system (eV)
  ---------------------------------------------------
  alpha Z        PSCENC =         8.32042091
  Ewald energy   TEWEN  =     13571.46252061
  -Hartree energ DENC   =    -18028.02564837
  -exchange      EXHF   =         0.00000000
  -V(xc)+E(xc)   XCENC  =       459.98894719
  PAW double counting   =     10150.23406046   -10174.45927043
  entropy T*S    EENTRO =        -0.00000000
  eigenvalues    EBANDS =     -1598.08609650
  atomic energy  EATOM  =      5345.17153341
  Solvation  Ediel_sol  =         0.00000000
  ---------------------------------------------------
  free energy    TOTEN  =      -265.39353273 eV

  energy without entropy =     -265.39353273  energy(sigma->0) =     -265.39353273


--------------------------------------------------------------------------------------------------------




--------------------------------------- Iteration      1(  23)  ---------------------------------------


    POTLOK:  cpu time    1.3248: real time    1.3279
    SETDIJ:  cpu time    0.0090: real time    0.0090
    EDDIAG:  cpu time    1.3198: real time    1.3231
  RMM-DIIS:  cpu time    2.6176: real time    2.6278
    ORTHCH:  cpu time    0.2670: real time    0.2669
       DOS:  cpu time    0.0000: real time    0.0004
    CHARGE:  cpu time    0.6149: real time    0.6165
    MIXING:  cpu time    0.1080: real time    0.1079
    --------------------------------------------
      LOOP:  cpu time    6.2610: real time    6.2796

 eigenvalue-minimisations  :    84
 total energy-change (2. order) :-0.6405351E-04  (-0.3393083E-06)
 number of electron     124.0000029 magnetization 
 augmentation part        5.8916561 magnetization 

 Broyden mixing:
  rms(total) = 0.63416E-04    rms(broyden)= 0.63401E-04
  rms(prec ) = 0.10667E-03
  weight for this iteration     100.00

 eigenvalues of (default mixing * dielectric matrix)
  average eigenvalue GAMMA=   2.4246
  8.5030  6.6192  4.1728  2.7174  2.3161  2.1589  1.9126  1.7418  1.2278  1.2278
  1.1346  1.0712  1.0712  1.0146  0.9527  0.9527

 Free energy of the ion-electron system (eV)
  ---------------------------------------------------
  alpha Z        PSCENC =         8.32042091
  Ewald energy   TEWEN  =     13571.46252061
  -Hartree energ DENC   =    -18028.05314583
  -exchange      EXHF   =         0.00000000
  -V(xc)+E(xc)   XCENC  =       459.98919003
  PAW double counting   =     10150.13558134   -10174.36093094
  entropy T*S    EENTRO =        -0.00000000
  eigenvalues    EBANDS =     -1598.05876631
  atomic energy  EATOM  =      5345.17153341
  Solvation  Ediel_sol  =         0.00000000
  ---------------------------------------------------
  free energy    TOTEN  =      -265.39359678 eV

  energy without entropy =     -265.39359678  energy(sigma->0) =     -265.39359678


--------------------------------------------------------------------------------------------------------




--------------------------------------- Iteration      1(  24)  ---------------------------------------


    POTLOK:  cpu time    1.3228: real time    1.3262
    SETDIJ:  cpu time    0.0090: real time    0.0093
    EDDIAG:  cpu time    1.3138: real time    1.3306
  RMM-DIIS:  cpu time    2.4696: real time    2.4757
    ORTHCH:  cpu time    0.2670: real time    0.2676
       DOS:  cpu time    0.0000: real time    0.0004
    CHARGE:  cpu time    0.6139: real time    0.6151
    MIXING:  cpu time    0.1150: real time    0.1152
    --------------------------------------------
      LOOP:  cpu time    6.1111: real time    6.1400

 eigenvalue-minimisations  :    69
 total energy-change (2. order) :-0.3314246E-04  (-0.1490044E-06)
 number of electron     124.0000029 magnetization 
 augmentation part        5.8916510 magnetization 

 Broyden mixing:
  rms(total) = 0.32301E-04    rms(broyden)= 0.32290E-04
  rms(prec ) = 0.58122E-04
  weight for this iteration     100.00

 eigenvalues of (default mixing * dielectric matrix)
  average eigenvalue GAMMA=   2.4395
  8.8023  6.7341  4.6137  2.8935  2.4057  2.2475  1.7933  1.7933  1.4941  1.3551
  1.1701  1.1701  1.0694  1.0694  0.9741  0.9433  0.9433

 Free energy of the ion-electron system (eV)
  ---------------------------------------------------
  alpha Z        PSCENC =         8.32042091
  Ewald energy   TEWEN  =     13571.46252061
  -Hartree energ DENC   =    -18028.05863982
  -exchange      EXHF   =         0.00000000
  -V(xc)+E(xc)   XCENC  =       459.98902996
  PAW double counting   =     10150.23272766   -10174.45806453
  entropy T*S    EENTRO =        -0.00000000
  eigenvalues    EBANDS =     -1598.05315812
  atomic energy  EATOM  =      5345.17153341
  Solvation  Ediel_sol  =         0.00000000
  ---------------------------------------------------
  free energy    TOTEN  =      -265.39362992 eV

  energy without entropy =     -265.39362992  energy(sigma->0) =     -265.39362992


--------------------------------------------------------------------------------------------------------




--------------------------------------- Iteration      1(  25)  ---------------------------------------


    POTLOK:  cpu time    1.3218: real time    1.3259
    SETDIJ:  cpu time    0.0110: real time    0.0116
    EDDIAG:  cpu time    1.3218: real time    1.3250
  RMM-DIIS:  cpu time    2.3786: real time    2.3864
    ORTHCH:  cpu time    0.2660: real time    0.2663
       DOS:  cpu time    0.0000: real time    0.0004
    CHARGE:  cpu time    0.6139: real time    0.6150
    MIXING:  cpu time    0.1250: real time    0.1255
    --------------------------------------------
      LOOP:  cpu time    6.0381: real time    6.0560

 eigenvalue-minimisations  :    63
 total energy-change (2. order) :-0.1155514E-04  (-0.6272292E-07)
 number of electron     124.0000029 magnetization 
 augmentation part        5.8916505 magnetization 

 Broyden mixing:
  rms(total) = 0.21979E-04    rms(broyden)= 0.21973E-04
  rms(prec ) = 0.37358E-04
  weight for this iteration     100.00

 eigenvalues of (default mixing * dielectric matrix)
  average eigenvalue GAMMA=   2.4878
  8.8777  7.0465  4.8969  3.5149  2.4854  2.4854  2.1867  1.7444  1.6659  1.3145
  1.3145  1.1283  1.1283  1.0639  1.0639  0.9665  0.9481  0.9481

 Free energy of the ion-electron system (eV)
  ---------------------------------------------------
  alpha Z        PSCENC =         8.32042091
  Ewald energy   TEWEN  =     13571.46252061
  -Hartree energ DENC   =    -18028.06192647
  -exchange      EXHF   =         0.00000000
  -V(xc)+E(xc)   XCENC  =       459.98894905
  PAW double counting   =     10150.23566066   -10174.46095299
  entropy T*S    EENTRO =        -0.00000000
  eigenvalues    EBANDS =     -1598.04984665
  atomic energy  EATOM  =      5345.17153341
  Solvation  Ediel_sol  =         0.00000000
  ---------------------------------------------------
  free energy    TOTEN  =      -265.39364148 eV

  energy without entropy =     -265.39364148  energy(sigma->0) =     -265.39364148


--------------------------------------------------------------------------------------------------------




--------------------------------------- Iteration      1(  26)  ---------------------------------------


    POTLOK:  cpu time    1.3278: real time    1.3312
    SETDIJ:  cpu time    0.0090: real time    0.0085
    EDDIAG:  cpu time    1.3218: real time    1.3255
  RMM-DIIS:  cpu time    2.3116: real time    2.3175
    ORTHCH:  cpu time    0.2660: real time    0.2660
       DOS:  cpu time    0.0000: real time    0.0003
    --------------------------------------------
      LOOP:  cpu time    5.2362: real time    5.2490

 eigenvalue-minimisations  :    54
 total energy-change (2. order) :-0.7409726E-05  (-0.2587067E-07)
 number of electron     124.0000029 magnetization 
 augmentation part        5.8916505 magnetization 

 Free energy of the ion-electron system (eV)
  ---------------------------------------------------
  alpha Z        PSCENC =         8.32042091
  Ewald energy   TEWEN  =     13571.46252061
  -Hartree energ DENC   =    -18028.05985854
  -exchange      EXHF   =         0.00000000
  -V(xc)+E(xc)   XCENC  =       459.98885148
  PAW double counting   =     10150.21914631   -10174.44443733
  entropy T*S    EENTRO =        -0.00000000
  eigenvalues    EBANDS =     -1598.05182574
  atomic energy  EATOM  =      5345.17153341
  Solvation  Ediel_sol  =         0.00000000
  ---------------------------------------------------
  free energy    TOTEN  =      -265.39364889 eV

  energy without entropy =     -265.39364889  energy(sigma->0) =     -265.39364889


--------------------------------------------------------------------------------------------------------




 average (electrostatic) potential at core
  the test charge radii are     0.6991  0.5201  0.7215
  (the norm of the test charge is              1.0000)
       1 -59.9658       2 -58.5464       3 -58.5854       4 -58.3722       5 -58.3904
       6 -59.9076       7 -59.8130       8 -59.8857       9 -59.7574      10 -59.8594
      11 -58.5541      12 -60.1009      13 -58.4673      14 -58.6612      15 -58.5677
      16 -59.2061      17 -59.8871      18 -42.0738      19 -41.7163      20 -41.8134
      21 -44.6907      22 -42.1324      23 -42.2812      24 -42.1237      25 -41.9036
      26 -41.8707      27 -44.8618      28 -41.9192      29 -41.8259      30 -42.2093
      31 -41.8868      32 -41.3564      33 -41.5373      34 -43.6738      35 -42.2321
      36 -42.3567      37 -42.2417      38 -80.9920      39 -81.4162      40 -80.7826
      41 -80.8054      42 -79.8575      43 -81.3837
 
 
 
 E-fermi :  -4.6644     XC(G=0):  -0.6464     alpha+bet : -0.3382


 k-point     1 :       0.0000    0.0000    0.0000
  band No.  band energies     occupation 
      1     -26.8882      2.00000
      2     -26.8477      2.00000
      3     -26.1892      2.00000
      4     -26.0814      2.00000
      5     -25.7825      2.00000
      6     -24.8915      2.00000
      7     -21.0337      2.00000
      8     -20.9138      2.00000
      9     -19.3528      2.00000
     10     -18.6013      2.00000
     11     -18.4920      2.00000
     12     -18.3063      2.00000
     13     -17.8298      2.00000
     14     -17.2651      2.00000
     15     -17.0485      2.00000
     16     -16.3822      2.00000
     17     -15.3099      2.00000
     18     -14.7965      2.00000
     19     -14.7804      2.00000
     20     -14.4458      2.00000
     21     -14.0279      2.00000
     22     -13.5123      2.00000
     23     -13.1934      2.00000
     24     -13.0604      2.00000
     25     -12.5693      2.00000
     26     -12.1861      2.00000
     27     -12.1495      2.00000
     28     -11.7573      2.00000
     29     -11.6009      2.00000
     30     -11.4735      2.00000
     31     -11.3749      2.00000
     32     -11.2475      2.00000
     33     -11.0449      2.00000
     34     -10.6765      2.00000
     35     -10.6423      2.00000
     36     -10.5768      2.00000
     37     -10.1542      2.00000
     38     -10.0879      2.00000
     39      -9.7508      2.00000
     40      -9.6828      2.00000
     41      -9.5506      2.00000
     42      -9.4570      2.00000
     43      -9.2030      2.00000
     44      -9.0619      2.00000
     45      -9.0127      2.00000
     46      -8.7904      2.00000
     47      -8.5460      2.00000
     48      -8.4070      2.00000
     49      -8.1260      2.00000
     50      -8.0348      2.00000
     51      -8.0284      2.00000
     52      -7.8349      2.00000
     53      -7.6981      2.00000
     54      -7.5849      2.00000
     55      -7.5156      2.00000
     56      -6.5645      2.00000
     57      -6.2659      2.00000
     58      -5.9493      2.00000
     59      -5.7462      2.00000
     60      -5.5820      2.00000
     61      -5.1935      2.00000
     62      -4.8656      2.00000
     63      -0.9930      0.00000
     64      -0.8983      0.00000
     65      -0.7488      0.00000
     66      -0.6638      0.00000
     67      -0.5496      0.00000
     68      -0.3793      0.00000
     69      -0.3125      0.00000
     70      -0.0981      0.00000
     71       0.0492      0.00000
     72       0.0821      0.00000
     73       0.2188      0.00000
     74       0.2820      0.00000
     75       0.3315      0.00000
     76       0.4041      0.00000
     77       0.4788      0.00000
     78       0.5617      0.00000
     79       0.6044      0.00000
     80       0.6874      0.00000
     81       0.8139      0.00000
     82       0.9093      0.00000
     83       1.0443      0.00000
     84       1.3698      0.00000


--------------------------------------------------------------------------------------------------------


 soft charge-density along one line, spin component           1
         0         1         2         3         4         5         6         7         8         9
 total charge-density along one line
 
 pseudopotential strength for first ion, spin component:           1
 10.323  13.730  -0.006   0.001  -0.004   0.018  -0.004   0.011
 13.730  18.261  -0.008   0.002  -0.005   0.024  -0.005   0.015
 -0.006  -0.008  -4.447   0.005  -0.008   8.703  -0.009   0.015
  0.001   0.002   0.005  -4.440  -0.002  -0.009   8.689   0.002
 -0.004  -0.005  -0.008  -0.002  -4.439   0.015   0.002   8.688
  0.018   0.024   8.703  -0.009   0.015 -19.174   0.016  -0.026
 -0.004  -0.005  -0.009   8.689   0.002   0.016 -19.144   0.000
  0.011   0.015   0.015   0.002   8.688  -0.026   0.000 -19.146
 total augmentation occupancy for first ion, spin component:           1
  8.133  -3.686   0.039  -0.034   0.018  -0.022  -0.001  -0.015
 -3.686   1.768   0.069  -0.001   0.046   0.023  -0.002   0.015
  0.039   0.069   1.484  -0.043   0.128   0.140  -0.021   0.040
 -0.034  -0.001  -0.043   1.705   0.253  -0.021   0.143   0.034
  0.018   0.046   0.128   0.253   1.534   0.040   0.034   0.120
 -0.022   0.023   0.140  -0.021   0.040   0.016  -0.003   0.006
 -0.001  -0.002  -0.021   0.143   0.034  -0.003   0.014   0.004
 -0.015   0.015   0.040   0.034   0.120   0.006   0.004   0.012


------------------------ aborting loop because EDIFF is reached ----------------------------------------


    CHARGE:  cpu time    0.6139: real time    0.6151
    FORLOC:  cpu time    0.2960: real time    0.2973
    FORNL :  cpu time    1.4028: real time    1.4078
    STRESS:  cpu time    4.1424: real time    4.1523
    FORCOR:  cpu time    1.4588: real time    1.4626
    FORHAR:  cpu time    0.5939: real time    0.5952
    MIXING:  cpu time    0.1300: real time    0.1301
    OFIELD:  cpu time    0.0000: real time    0.0000

  DFT-D2 method for vdW energy calculation
  -------------------------------------------------------------------

  Parameters of vdW forcefield:
         C6(Jnm^6/mol)     R0(A)
   -----------------------------
   C        1.750          1.452
   H        0.140          1.001
   O        0.700          1.342

  IVDW =   1
  VDW_RADIUS =    40.000 A
  VDW_S6 =     0.750
  VDW_SR =     1.000
  VDW_D =    20.000
  LVDW_EWALD = F

  Number of pair interactions contributing to vdW energy:   29008
  Edisp (eV):   -1.18794
    FORVDW:  cpu time    0.0250: real time    0.0266

  FORCE on cell =-STRESS in cart. coord.  units (eV):
  Direction    XX          YY          ZZ          XY          YZ          ZX
[...]
  n-local  -267.01438  -266.95971  -260.07294     1.23985    -0.13065    -2.02349
  augment    36.87766    36.84148    35.09017    -1.43239    -0.23245     0.57093
  Kinetic  2047.56610  2044.01161  2049.03405   -47.54185   -14.61341    -6.49053
  Fock        0.00000     0.00000     0.00000     0.00000     0.00000     0.00000
  vdW        -0.53489    -0.26333    -0.16985    -0.01721     0.05137     0.12996
  -------------------------------------------------------------------------------------
  Total      -2.02639    -2.07650    -2.00211     0.08566     0.06358    -0.08207
  in kB      -0.40583    -0.41587    -0.40097     0.01716     0.01273    -0.01644
  external pressure =       -0.41 kB  Pullay stress =        0.00 kB



--------------------------------------------------------------------------------------------------------



  FREE ENERGIE OF THE ION-ELECTRON SYSTEM (eV)
  ---------------------------------------------------
  free  energy   TOTEN  =      -266.58208848 eV

  energy  without entropy=     -266.58208848  energy(sigma->0) =     -266.58208848
 
 d Force = 0.1328834E-03[ 0.247E-04, 0.241E-03]  d Energy = 0.1320271E-03 0.856E-06
 d Force = 0.2218032E+00[ 0.223E+00, 0.221E+00]  d Ewald  = 0.2218031E+00 0.943E-07


--------------------------------------------------------------------------------------------------------


    POTLOK:  cpu time    1.3618: real time    1.3658


--------------------------------------------------------------------------------------------------------




--------------------------------------------------------------------------------------------------------


    WAVPRE:  cpu time    0.5919: real time    0.5954
    FEWALD:  cpu time    0.0030: real time    0.0030
    ORTHCH:  cpu time    0.7249: real time    0.7271
     LOOP+:  cpu time   48.0857: real time   48.2303


--------------------------------------- Iteration      6(   1)  ---------------------------------------


    POTLOK:  cpu time    1.3698: real time    1.3771
    SETDIJ:  cpu time    0.0080: real time    0.0082
     EDDAV:  cpu time    7.6398: real time    7.6600
       DOS:  cpu time    0.0000: real time    0.0003
    CHARGE:  cpu time    0.6239: real time    0.6253
    MIXING:  cpu time    0.0350: real time    0.0355
    --------------------------------------------
      LOOP:  cpu time    9.6765: real time    9.7065

 eigenvalue-minimisations  :   204
 total energy-change (2. order) :-0.9294381E-06  (-0.6483273E-04)
 number of electron     124.0000023 magnetization 
 augmentation part        5.8912410 magnetization 

  free energy =  -0.265394162136E+03  energy without entropy=  -0.265394162136E+03


--------------------------------------------------------------------------------------------------------




--------------------------------------- Iteration      6(   2)  ---------------------------------------


    POTLOK:  cpu time    1.3638: real time    1.3694
    SETDIJ:  cpu time    0.0080: real time    0.0085
    EDDIAG:  cpu time    1.3268: real time    1.3295
  RMM-DIIS:  cpu time    2.9306: real time    2.9385
    ORTHCH:  cpu time    0.2660: real time    0.2675
       DOS:  cpu time    0.0010: real time    0.0005
    CHARGE:  cpu time    0.6169: real time    0.6189
    MIXING:  cpu time    0.0430: real time    0.0433
    --------------------------------------------
      LOOP:  cpu time    6.5570: real time    6.5762

 eigenvalue-minimisations  :   107
 total energy-change (2. order) :-0.1043478E-05  (-0.1530426E-05)
 number of electron     124.0000023 magnetization 
 augmentation part        5.8912393 magnetization 

 eigenvalues of (default mixing * dielectric matrix)
  average eigenvalue GAMMA=   1.0350
  1.0350

  free energy =  -0.265394163179E+03  energy without entropy=  -0.265394163179E+03


--------------------------------------------------------------------------------------------------------




--------------------------------------- Iteration      6(   3)  ---------------------------------------


    POTLOK:  cpu time    1.3688: real time    1.3748
    SETDIJ:  cpu time    0.0090: real time    0.0091
    EDDIAG:  cpu time    1.3268: real time    1.3307
  RMM-DIIS:  cpu time    2.8146: real time    2.8244
    ORTHCH:  cpu time    0.2670: real time    0.2670
       DOS:  cpu time    0.0000: real time    0.0005
    CHARGE:  cpu time    0.6149: real time    0.6159
    MIXING:  cpu time    0.0420: real time    0.0421
    --------------------------------------------
      LOOP:  cpu time    6.4420: real time    6.4645

 eigenvalue-minimisations  :    98
 total energy-change (2. order) :-0.4019967E-06  (-0.1143775E-06)
 number of electron     124.0000023 magnetization 
 augmentation part        5.8912375 magnetization 

 eigenvalues of (default mixing * dielectric matrix)
  average eigenvalue GAMMA=   1.6337
  1.0989  2.1685

  free energy =  -0.265394163581E+03  energy without entropy=  -0.265394163581E+03


--------------------------------------------------------------------------------------------------------




--------------------------------------- Iteration      6(   4)  ---------------------------------------


    POTLOK:  cpu time    1.3658: real time    1.3702
    SETDIJ:  cpu time    0.0090: real time    0.0090
    EDDIAG:  cpu time    1.3308: real time    1.3339
  RMM-DIIS:  cpu time    2.3326: real time    2.3389
    ORTHCH:  cpu time    0.2660: real time    0.2667
       DOS:  cpu time    0.0000: real time    0.0006
    CHARGE:  cpu time    0.6189: real time    0.6198
    MIXING:  cpu time    0.0410: real time    0.0412
    --------------------------------------------
      LOOP:  cpu time    5.9641: real time    5.9803

 eigenvalue-minimisations  :    57
 total energy-change (2. order) :-0.4712110E-06  (-0.1708323E-07)
 number of electron     124.0000023 magnetization 
 augmentation part        5.8912381 magnetization 

 eigenvalues of (default mixing * dielectric matrix)
  average eigenvalue GAMMA=   1.5520
  2.5293  1.0633  1.0633

  free energy =  -0.265394164052E+03  energy without entropy=  -0.265394164052E+03


--------------------------------------------------------------------------------------------------------




--------------------------------------- Iteration      6(   5)  ---------------------------------------


    POTLOK:  cpu time    1.3718: real time    1.3760
    SETDIJ:  cpu time    0.0090: real time    0.0087
    EDDIAG:  cpu time    1.3278: real time    1.3337
  RMM-DIIS:  cpu time    2.1947: real time    2.2005
    ORTHCH:  cpu time    0.2660: real time    0.2669
       DOS:  cpu time    0.0000: real time    0.0002
    --------------------------------------------
      LOOP:  cpu time    5.1692: real time    5.1860

 eigenvalue-minimisations  :    48
 total energy-change (2. order) :-0.1966237E-06  (-0.5656531E-08)
 number of electron     124.0000023 magnetization 
 augmentation part        5.8912381 magnetization 

  free energy =  -0.265394164249E+03  energy without entropy=  -0.265394164249E+03


--------------------------------------------------------------------------------------------------------




------------------------ aborting loop because EDIFF is reached ----------------------------------------


    CHARGE:  cpu time    0.6249: real time    0.6273
    FORLOC:  cpu time    0.2990: real time    0.2996
    FORNL :  cpu time    1.4188: real time    1.4223
    STRESS:  cpu time    4.1134: real time    4.1247
    FORCOR:  cpu time    1.4418: real time    1.4475
    FORHAR:  cpu time    0.5889: real time    0.5903
    MIXING:  cpu time    0.0410: real time    0.0409
    OFIELD:  cpu time    0.0000: real time    0.0000

  Number of pair interactions contributing to vdW energy:   29008
  Edisp (eV):   -1.18793
    FORVDW:  cpu time    0.0080: real time    0.0089

  FORCE on cell =-STRESS in cart. coord.  units (eV):
  Direction    XX          YY          ZZ          XY          YZ          ZX
  --------------------------------------------------------------------------------------
  Alpha Z     8.32042     8.32042     8.32042
  Ewald    8695.50190  2904.48386  1970.40372  2324.28653   269.94253    85.73343
  Hartree  9967.18415  4370.44496  3689.34166  1870.21674   141.40156     0.86695
  E(xc)    -495.84456  -495.85864  -497.07661     1.73706     0.62089     0.62357
  Local  -19994.07324 -8603.09772 -6996.87865 -4148.40551  -396.97379   -79.49183
  n-local  -267.01467  -266.96019  -260.07319     1.24133    -0.13044    -2.02292
  augment    36.87714    36.84187    35.09043    -1.43256    -0.23277     0.57063
  Kinetic  2047.56049  2044.01570  2049.04187   -47.54717   -14.61577    -6.49622
  Fock        0.00000     0.00000     0.00000     0.00000     0.00000     0.00000
  vdW        -0.53494    -0.26335    -0.16985    -0.01721     0.05135     0.12999
  -------------------------------------------------------------------------------------
  Total      -2.02330    -2.07309    -2.00020     0.07921     0.06355    -0.08637
  in kB      -0.40521    -0.41518    -0.40058     0.01586     0.01273    -0.01730
  external pressure =       -0.41 kB  Pullay stress =        0.00 kB



--------------------------------------------------------------------------------------------------------



  FREE ENERGIE OF THE ION-ELECTRON SYSTEM (eV)
  ---------------------------------------------------
  free  energy   TOTEN  =      -266.58209080 eV

  energy  without entropy=     -266.58209080  energy(sigma->0) =     -266.58209080
 
 d Force = 0.1670861E-05[ 0.518E-06, 0.282E-05]  d Energy = 0.2319613E-05-0.649E-06
 d Force = 0.2546252E-01[ 0.255E-01, 0.255E-01]  d Ewald  = 0.2546244E-01 0.789E-07


--------------------------------------------------------------------------------------------------------


    POTLOK:  cpu time    1.3708: real time    1.3745


--------------------------------------------------------------------------------------------------------




--------------------------------------------------------------------------------------------------------


    WAVPRE:  cpu time    0.5899: real time    0.5939
    FEWALD:  cpu time    0.0020: real time    0.0020
    ORTHCH:  cpu time    0.7219: real time    0.7238
     LOOP+:  cpu time   45.0492: real time   45.1905


--------------------------------------- Iteration      7(   1)  ---------------------------------------


    POTLOK:  cpu time    1.3698: real time    1.3753
    SETDIJ:  cpu time    0.0150: real time    0.0152
     EDDAV:  cpu time    7.2959: real time    7.3166
       DOS:  cpu time    0.0000: real time    0.0003
    CHARGE:  cpu time    0.6239: real time    0.6257
    MIXING:  cpu time    0.0340: real time    0.0347
    --------------------------------------------
      LOOP:  cpu time    9.3396: real time    9.3679

 eigenvalue-minimisations  :   192
 total energy-change (2. order) :-0.2288290E-05  (-0.2907372E-03)
 number of electron     124.0000023 magnetization 
 augmentation part        5.8912180 magnetization 

  free energy =  -0.265394166341E+03  energy without entropy=  -0.265394166341E+03


--------------------------------------------------------------------------------------------------------




--------------------------------------- Iteration      7(   2)  ---------------------------------------


    POTLOK:  cpu time    1.3718: real time    1.3747
    SETDIJ:  cpu time    0.0080: real time    0.0080
    EDDIAG:  cpu time    1.3218: real time    1.3264
  RMM-DIIS:  cpu time    3.8944: real time    3.9066
    ORTHCH:  cpu time    0.2670: real time    0.2672
       DOS:  cpu time    0.0000: real time    0.0006
    CHARGE:  cpu time    0.6159: real time    0.6174
    MIXING:  cpu time    0.0380: real time    0.0377
    --------------------------------------------
      LOOP:  cpu time    7.5159: real time    7.5387

 eigenvalue-minimisations  :   141
 total energy-change (2. order) :-0.4731119E-05  (-0.7146867E-05)
 number of electron     124.0000023 magnetization 
 augmentation part        5.8912541 magnetization 

 eigenvalues of (default mixing * dielectric matrix)
  average eigenvalue GAMMA=   0.9753
  0.9753

  free energy =  -0.265394171072E+03  energy without entropy=  -0.265394171072E+03


--------------------------------------------------------------------------------------------------------




--------------------------------------- Iteration      7(   3)  ---------------------------------------


    POTLOK:  cpu time    1.3738: real time    1.3781
    SETDIJ:  cpu time    0.0090: real time    0.0091
    EDDIAG:  cpu time    1.3298: real time    1.3336
  RMM-DIIS:  cpu time    2.8766: real time    2.8843
    ORTHCH:  cpu time    0.2690: real time    0.2693
       DOS:  cpu time    0.0000: real time    0.0002
    CHARGE:  cpu time    0.6159: real time    0.6176
    MIXING:  cpu time    0.0400: real time    0.0404
    --------------------------------------------
      LOOP:  cpu time    6.5140: real time    6.5325

 eigenvalue-minimisations  :   102
 total energy-change (2. order) :-0.4717731E-06  (-0.3018920E-06)
 number of electron     124.0000023 magnetization 
 augmentation part        5.8912534 magnetization 

 eigenvalues of (default mixing * dielectric matrix)
  average eigenvalue GAMMA=   1.6172
  1.0845  2.1498

  free energy =  -0.265394171543E+03  energy without entropy=  -0.265394171543E+03


--------------------------------------------------------------------------------------------------------




--------------------------------------- Iteration      7(   4)  ---------------------------------------


    POTLOK:  cpu time    1.3818: real time    1.3852
    SETDIJ:  cpu time    0.0090: real time    0.0100
    EDDIAG:  cpu time    1.3228: real time    1.3278
  RMM-DIIS:  cpu time    2.8746: real time    2.8818
    ORTHCH:  cpu time    0.2660: real time    0.2667
       DOS:  cpu time    0.0000: real time    0.0003
    CHARGE:  cpu time    0.6149: real time    0.6165
    MIXING:  cpu time    0.0430: real time    0.0437
    --------------------------------------------
      LOOP:  cpu time    6.5120: real time    6.5320

 eigenvalue-minimisations  :   105
 total energy-change (2. order) :-0.8485949E-06  (-0.1653283E-06)
 number of electron     124.0000023 magnetization 
 augmentation part        5.8912511 magnetization 

 eigenvalues of (default mixing * dielectric matrix)
  average eigenvalue GAMMA=   1.5218
  2.1977  1.1838  1.1838

  free energy =  -0.265394172392E+03  energy without entropy=  -0.265394172392E+03


--------------------------------------------------------------------------------------------------------




--------------------------------------- Iteration      7(   5)  ---------------------------------------


    POTLOK:  cpu time    1.3808: real time    1.3848
    SETDIJ:  cpu time    0.0110: real time    0.0109
    EDDIAG:  cpu time    1.3318: real time    1.3347
  RMM-DIIS:  cpu time    2.2077: real time    2.2149
    ORTHCH:  cpu time    0.2660: real time    0.2668
       DOS:  cpu time    0.0010: real time    0.0002
    --------------------------------------------
      LOOP:  cpu time    5.1982: real time    5.2122

 eigenvalue-minimisations  :    50
 total energy-change (2. order) :-0.8717325E-07  (-0.1108748E-07)
 number of electron     124.0000023 magnetization 
 augmentation part        5.8912511 magnetization 

  free energy =  -0.265394172479E+03  energy without entropy=  -0.265394172479E+03


--------------------------------------------------------------------------------------------------------




------------------------ aborting loop because EDIFF is reached ----------------------------------------


    CHARGE:  cpu time    0.6119: real time    0.6149
    FORLOC:  cpu time    0.3000: real time    0.3009
    FORNL :  cpu time    1.3808: real time    1.3843
    STRESS:  cpu time    4.1414: real time    4.1528
    FORCOR:  cpu time    1.4508: real time    1.4547
    FORHAR:  cpu time    0.5889: real time    0.5904
    MIXING:  cpu time    0.0410: real time    0.0409
    OFIELD:  cpu time    0.0000: real time    0.0000

  Number of pair interactions contributing to vdW energy:   29008
  Edisp (eV):   -1.18796
    FORVDW:  cpu time    0.0090: real time    0.0089

  FORCE on cell =-STRESS in cart. coord.  units (eV):
  Direction    XX          YY          ZZ          XY          YZ          ZX
  --------------------------------------------------------------------------------------
  Alpha Z     8.32042     8.32042     8.32042
  Ewald    8695.49698  2904.37434  1970.49994  2324.27207   269.87488    85.69522
  Hartree  9967.22346  4370.39466  3689.33000  1870.16926   141.38378     0.81692
  E(xc)    -495.84417  -495.85848  -497.07575     1.73720     0.62071     0.62362
  Local  -19994.11362 -8602.95667 -6996.94387 -4148.33865  -396.89450   -79.39494
  n-local  -267.01116  -266.95650  -260.07438     1.24153    -0.13096    -2.02149
  augment    36.87663    36.84309    35.09055    -1.43253    -0.23293     0.57012
  Kinetic  2047.55278  2044.02345  2049.03421   -47.55056   -14.60885    -6.50508
  Fock        0.00000     0.00000     0.00000     0.00000     0.00000     0.00000
  vdW        -0.53494    -0.26342    -0.16991    -0.01724     0.05136     0.12999
  -------------------------------------------------------------------------------------
  Total      -2.03361    -2.07910    -1.98880     0.08108     0.06350    -0.08564
  in kB      -0.40728    -0.41639    -0.39830     0.01624     0.01272    -0.01715
  external pressure =       -0.41 kB  Pullay stress =        0.00 kB



--------------------------------------------------------------------------------------------------------



  FREE ENERGIE OF THE ION-ELECTRON SYSTEM (eV)
  ---------------------------------------------------
  free  energy   TOTEN  =      -266.58212823 eV

  energy  without entropy=     -266.58212823  energy(sigma->0) =     -266.58212823
 
 d Force = 0.3707963E-04[ 0.270E-04, 0.471E-04]  d Energy = 0.3743298E-04-0.353E-06
 d Force = 0.1822589E-01[ 0.183E-01, 0.182E-01]  d Ewald  = 0.1822594E-01-0.504E-07


--------------------------------------------------------------------------------------------------------


    POTLOK:  cpu time    1.3778: real time    1.3810


--------------------------------------------------------------------------------------------------------


 Conjugate gradient step on ions:
 trial-energy change:   -0.000037  1 .order   -0.000037   -0.000047   -0.000027
  (g-gl).g = 0.672E-04      g.g   = 0.639E-04  gl.gl    = 0.237E-03
 g(Force)  = 0.639E-04   g(Stress)= 0.000E+00 ortho     = 0.347E-05
 gamma     =   0.28407
 trial     =   0.72580
 opt step  =   1.70398  (harmonic =   1.70398) maximal distance =0.00044054
 next E    =  -266.582146   (d E  =  -0.00006)


--------------------------------------------------------------------------------------------------------


  
 reached required accuracy - stopping structural energy minimisation
     LOOP+:  cpu time   44.9982: real time   45.1349
    4ORBIT:  cpu time    0.0000: real time    0.0000

 total amount of memory used by VASP MPI-rank0   191684. kBytes
=======================================================================

   base      :      30000. kBytes
   nonlr-proj:       3854. kBytes
   fftplans  :      33533. kBytes
   grid      :     104696. kBytes
   one-center:        132. kBytes
   wavefun   :      19469. kBytes
 
  
  
 General timing and accounting informations for this job:
 ========================================================
  
                  Total CPU time used (sec):      497.419
                            User time (sec):      483.120
                          System time (sec):       14.300
                         Elapsed time (sec):      498.929
  
                   Maximum memory used (kb):      561452.
                   Average memory used (kb):           0.
  
                          Minor page faults:       610580
                          Major page faults:            0
                 Voluntary context switches:          981
