 vasp.5.4.4.18Apr17-6-g9f103f2a35 (build Jun 30 2017 19:19:18) complex          
  
 executed on         MareNostrum4 date 2022.12.12  14:49:04
 running on   48 total cores
 distrk:  each k-point on   48 cores,    1 groups
 distr:  one band on NCORES_PER_BAND=   1 cores,   48 groups


--------------------------------------------------------------------------------------------------------


 INCAR:
 POTCAR:    PAW_PBE Ru 04Feb2005                  
 POTCAR:    PAW_PBE H 15Jun2001                   
 POTCAR:    PAW_PBE C 08Apr2002                   

 ----------------------------------------------------------------------------- 
|                                                                             |
|           W    W    AA    RRRRR   N    N  II  N    N   GGGG   !!!           |
|           W    W   A  A   R    R  NN   N  II  NN   N  G    G  !!!           |
|           W    W  A    A  R    R  N N  N  II  N N  N  G       !!!           |
|           W WW W  AAAAAA  RRRRR   N  N N  II  N  N N  G  GGG   !            |
|           WW  WW  A    A  R   R   N   NN  II  N   NN  G    G                |
|           W    W  A    A  R    R  N    N  II  N    N   GGGG   !!!           |
|                                                                             |
|      For optimal performance we recommend to set                            |
|        NCORE= 4 - approx SQRT( number of cores)                             |
|      NCORE specifies how many cores store one orbital (NPAR=cpu/NCORE).     |
|      This setting can  greatly improve the performance of VASP for DFT.     |
|      The default,   NCORE=1            might be grossly inefficient         |
|      on modern multi-core architectures or massively parallel machines.     |
|      Do your own testing !!!!                                               |
|      Unfortunately you need to use the default for GW and RPA calculations. |
|      (for HF NCORE is supported but not extensively tested yet)             |
|                                                                             |
 ----------------------------------------------------------------------------- 

 POTCAR:    PAW_PBE Ru 04Feb2005                  
  local pseudopotential read in
  partial core-charges read in
  partial kinetic energy density read in
  atomic valenz-charges read in
  non local Contribution for L=           2  read in
    real space projection operators read in
  non local Contribution for L=           2  read in
    real space projection operators read in
  non local Contribution for L=           0  read in
    real space projection operators read in
  non local Contribution for L=           0  read in
    real space projection operators read in
  non local Contribution for L=           1  read in
    real space projection operators read in
  non local Contribution for L=           1  read in
    real space projection operators read in
    PAW grid and wavefunctions read in
 
   number of l-projection  operators is LMAX  =           6
   number of lm-projection operators is LMMAX =          18
 
 POTCAR:    PAW_PBE H 15Jun2001                   
  local pseudopotential read in
  atomic valenz-charges read in
  non local Contribution for L=           0  read in
    real space projection operators read in
  non local Contribution for L=           0  read in
    real space projection operators read in
  non local Contribution for L=           1  read in
    real space projection operators read in
    PAW grid and wavefunctions read in
 
   number of l-projection  operators is LMAX  =           3
   number of lm-projection operators is LMMAX =           5
 
 POTCAR:    PAW_PBE C 08Apr2002                   
  local pseudopotential read in
  partial core-charges read in
  partial kinetic energy density read in
  atomic valenz-charges read in
  non local Contribution for L=           0  read in
    real space projection operators read in
  non local Contribution for L=           0  read in
    real space projection operators read in
  non local Contribution for L=           1  read in
    real space projection operators read in
  non local Contribution for L=           1  read in
    real space projection operators read in
    PAW grid and wavefunctions read in
 
   number of l-projection  operators is LMAX  =           4
   number of lm-projection operators is LMMAX =           8
 
 Optimization of the real space projectors (new method)

 maximal supplied QI-value         = 13.98
 optimisation between [QCUT,QGAM] = [ 10.77, 21.68] = [ 32.47,131.56] Ry 
 Optimized for a Real-space Cutoff    1.51 Angstroem

   l    n(q)    QCUT    max X(q) W(low)/X(q) W(high)/X(q)  e(spline) 
   2      9    10.768    61.733    0.26E-03    0.97E-04    0.28E-06
   2      9    10.768    59.886    0.26E-03    0.10E-03    0.29E-06
   0     10    10.768    23.358    0.12E-03    0.28E-03    0.38E-06
   0     10    10.768    11.320    0.93E-04    0.23E-03    0.31E-06
   1      9    10.768    14.765    0.48E-03    0.21E-03    0.19E-06
   1      9    10.768     8.283    0.36E-03    0.16E-03    0.15E-06
 Optimization of the real space projectors (new method)

 maximal supplied QI-value         = 34.20
 optimisation between [QCUT,QGAM] = [ 10.60, 21.55] = [ 31.48,130.03] Ry 
 Optimized for a Real-space Cutoff    1.23 Angstroem

   l    n(q)    QCUT    max X(q) W(low)/X(q) W(high)/X(q)  e(spline) 
   0      8    10.603    19.460    0.37E-03    0.59E-03    0.23E-06
   0      8    10.603    12.209    0.35E-03    0.56E-03    0.22E-06
   1      7    10.603     4.655    0.70E-04    0.28E-03    0.29E-06
 Optimization of the real space projectors (new method)

 maximal supplied QI-value         = 25.13
 optimisation between [QCUT,QGAM] = [ 10.81, 21.61] = [ 32.71,130.83] Ry 
 Optimized for a Real-space Cutoff    1.23 Angstroem

   l    n(q)    QCUT    max X(q) W(low)/X(q) W(high)/X(q)  e(spline) 
   0      8    10.807   115.676    0.36E-03    0.72E-03    0.24E-06
   0      8    10.807    87.132    0.35E-03    0.71E-03    0.24E-06
   1      7    10.807     4.429    0.19E-03    0.39E-03    0.11E-06
   1      7    10.807     2.733    0.14E-03    0.28E-03    0.13E-06
  PAW_PBE Ru 04Feb2005                  :
 energy of atom  1       EATOM= -454.8837
 kinetic energy error for atom=    0.0028 (will be added to EATOM!!)
  PAW_PBE H 15Jun2001                   :
 energy of atom  2       EATOM=  -12.4884
 kinetic energy error for atom=    0.0045 (will be added to EATOM!!)
  PAW_PBE C 08Apr2002                   :
 energy of atom  3       EATOM= -147.1560
 kinetic energy error for atom=    0.0116 (will be added to EATOM!!)
 
 
 POSCAR: Ru  H  C                                
  positions in direct lattice
  velocities in cartesian coordinates
 exchange correlation table for  LEXCH =        8
   RHO(1)=    0.500       N(1)  =     2000
   RHO(2)=  100.500       N(2)  =     4000
 


--------------------------------------------------------------------------------------------------------


 ion  position               nearest neighbor table
   1  0.000  0.083  0.000-  14 2.65  13 2.65 114 2.65  57 2.71   2 2.71 101 2.71 102 2.71   3 2.71
                           107 2.71
   2  0.167  0.000  0.000-  69 2.65  14 2.65  16 2.65  57 2.71   1 2.71  60 2.71   4 2.71   3 2.71
                            58 2.71
   3  0.083  0.167  0.000-  19 2.65  15 2.65  14 2.65   7 2.71 107 2.71   1 2.71   8 2.71   2 2.71
                             4 2.71
   4  0.250  0.083  0.000-  17 2.65  16 2.65  15 2.65  60 2.71   5 2.71   6 2.71   2 2.71   8 2.71
                             3 2.71
   5  0.417  0.000  0.000-  72 2.65  17 2.65 109 2.65 153 2.71   4 2.71  97 2.71  60 2.71 151 2.71
                             6 2.71
   6  0.333  0.167  0.000-  22 2.65  18 2.65  17 2.65  10 2.71   8 2.71   4 2.71  11 2.71   5 2.71
                            97 2.71
   7  1.000  0.333  0.000-  19 2.65 120 2.65  20 2.65   3 2.71 107 2.71 108 2.71   8 2.71 149 2.71
                             9 2.71
   8  0.167  0.250  0.000-  22 2.65  15 2.65  20 2.65  10 2.71   6 2.71   3 2.71   7 2.71   4 2.71
                             9 2.71
   9  0.083  0.417  0.000-  21 2.65  61 2.65  20 2.65  49 2.71  50 2.71 149 2.71  10 2.71   8 2.71
                             7 2.71
  10  0.250  0.333  0.000-  22 2.65  23 2.65  21 2.65   6 2.71   8 2.71   9 2.71  11 2.71  50 2.71
                            12 2.71
  11  0.417  0.250  0.000- 115 2.65  18 2.65  23 2.65 103 2.71  99 2.71   6 2.71  10 2.71  97 2.71
                            12 2.71
  12  0.333  0.417  0.000-  24 2.65  64 2.65  23 2.65  52 2.71  53 2.71 103 2.71  50 2.71  11 2.71
                            10 2.71
  13  0.000  0.000  0.107-  81 2.64 125 2.64  25 2.64 101 2.65   1 2.65  57 2.65  14 2.71 168 2.71
                            69 2.71 113 2.71  68 2.71 114 2.71
  14  0.083  0.083  0.107-  25 2.64  26 2.64  27 2.64   1 2.65   2 2.65   3 2.65  69 2.71  13 2.71
                           114 2.71  16 2.71  19 2.71  15 2.71
  15  0.167  0.167  0.107-  27 2.64  28 2.64  32 2.64   8 2.65   3 2.65   4 2.65  20 2.71  22 2.71
                            17 2.71  19 2.71  16 2.71  14 2.71
  16  0.250  0.000  0.107-  84 2.64  26 2.64  28 2.64  60 2.65   4 2.65   2 2.65  17 2.71  72 2.71
                            69 2.71  14 2.71  15 2.71  71 2.71
  17  0.333  0.083  0.107-  29 2.64  30 2.64  28 2.64   4 2.65   5 2.65   6 2.65  72 2.71  16 2.71
                            15 2.71 109 2.71  22 2.71  18 2.71
  18  0.417  0.167  0.107-  30 2.64 121 2.64  35 2.64  11 2.65   6 2.65  97 2.65  23 2.71 115 2.71
                           110 2.71  22 2.71 109 2.71  17 2.71
  19  1.000  0.250  0.107- 131 2.64  27 2.64  31 2.64 107 2.65   7 2.65   3 2.65 114 2.71 119 2.71
                            20 2.71  15 2.71 120 2.71  14 2.71
  20  0.083  0.333  0.107-  33 2.64  31 2.64  32 2.64   8 2.65   7 2.65   9 2.65  15 2.71  22 2.71
                           120 2.71  21 2.71  19 2.71  61 2.71
  21  0.167  0.417  0.107-  34 2.64  33 2.64  74 2.64   9 2.65  50 2.65  10 2.65  62 2.71  61 2.71
                            20 2.71  64 2.71  22 2.71  23 2.71
  22  0.250  0.250  0.107-  34 2.64  32 2.64  30 2.64   8 2.65  10 2.65   6 2.65  15 2.71  20 2.71
                            23 2.71  18 2.71  17 2.71  21 2.71
  23  0.333  0.333  0.107-  34 2.64  35 2.64  36 2.65  11 2.65  10 2.65  12 2.65  18 2.71 115 2.71
                            24 2.71  22 2.71  64 2.71  21 2.71
  24  0.417  0.417  0.107-  77 2.64 127 2.64  36 2.65  12 2.65  53 2.65 103 2.65  65 2.71  64 2.71
                            23 2.71 157 2.71 115 2.71 116 2.71
  25  0.000  0.083  0.213-  37 2.59 138 2.59  38 2.59  14 2.64 114 2.64  13 2.64  27 2.71 131 2.71
                            26 2.71 126 2.71  81 2.71 125 2.71
  26  0.167  0.000  0.214-  93 2.59  38 2.59  40 2.59  14 2.64  69 2.64  16 2.64  84 2.71  25 2.71
                            81 2.71  28 2.71  82 2.71  27 2.71
  27  0.083  0.167  0.214-  38 2.59  43 2.59  39 2.59  19 2.64  15 2.64  14 2.64  25 2.71 131 2.71
                            32 2.71  31 2.71  28 2.71  26 2.71
  28  0.250  0.083  0.214-  41 2.59  40 2.59  39 2.59  16 2.64  17 2.64  15 2.64  84 2.71  32 2.71
                            26 2.71  29 2.71  27 2.71  30 2.71
  29  0.417  0.000  0.213- 133 2.59  96 2.59  41 2.59 109 2.64  17 2.64  72 2.64  30 2.71  28 2.71
                           177 2.71 175 2.71  84 2.71 121 2.71
  30  0.333  0.167  0.214-  41 2.59  42 2.59  46 2.59  18 2.64  17 2.64  22 2.64  29 2.71  35 2.71
                            32 2.71  34 2.71  28 2.71 121 2.71
  31  1.000  0.333  0.214- 144 2.59  44 2.59  43 2.59 120 2.64  19 2.64  20 2.64 173 2.71 131 2.71
                            27 2.71 132 2.71  33 2.71  32 2.72
  32  0.167  0.250  0.214-  44 2.59  39 2.59  46 2.59  22 2.64  15 2.64  20 2.64  33 2.71  34 2.71
                            27 2.71  28 2.71  30 2.71  31 2.72
  33  0.084  0.416  0.214-  45 2.57  85 2.58  44 2.59  21 2.64  20 2.64  61 2.64  74 2.71  34 2.71
                            32 2.71  31 2.71 173 2.72  73 2.72
  34  0.250  0.333  0.213-  47 2.59  45 2.59  46 2.59  22 2.64  21 2.64  23 2.64  33 2.71  35 2.71
                            32 2.71  74 2.71  36 2.71  30 2.71
  35  0.417  0.250  0.214-  47 2.57  42 2.59 139 2.59  23 2.64  18 2.64 115 2.64  36 2.71  34 2.71
                            30 2.71 121 2.71 127 2.71 123 2.72
  36  0.333  0.417  0.214-  48 2.59  47 2.59  88 2.60  23 2.65  24 2.65  64 2.65 127 2.71  35 2.71
                            34 2.71  77 2.71  76 2.72  74 2.72
  37  1.000  0.000  0.316- 125 2.59  25 2.59  81 2.59 138 2.71  92 2.71  93 2.71  38 2.71 137 2.71
                           192 2.71
  38  0.083  0.083  0.316-  27 2.59  26 2.59  25 2.59  93 2.71  40 2.71 138 2.71  37 2.71  43 2.71
                            39 2.71
  39  0.167  0.167  0.317-  32 2.59  28 2.59  27 2.59  40 2.71  41 2.71  38 2.71  44 2.71  46 2.71
                            43 2.71
  40  0.250  0.000  0.317-  28 2.59  84 2.59  26 2.59  39 2.71  38 2.71  41 2.71  96 2.71  93 2.71
                            95 2.72
  41  0.333  0.083  0.316-  30 2.59  28 2.59  29 2.59  39 2.71  40 2.71  42 2.71  46 2.71  96 2.71
                           133 2.71
  42  0.417  0.167  0.317-  35 2.59  30 2.59 121 2.59  47 2.70 133 2.71  41 2.71 139 2.71  46 2.71
                           134 2.71
  43  1.000  0.250  0.317-  27 2.59 131 2.59  31 2.59  38 2.71 138 2.71 143 2.71 144 2.71  39 2.71
                            44 2.71
  44  0.083  0.333  0.317-  33 2.59  32 2.59  31 2.59  45 2.69  85 2.71 144 2.71  46 2.71  39 2.71
                            43 2.71
  45  0.166  0.416  0.316-  33 2.57  34 2.59  74 2.59  44 2.69  46 2.70  85 2.70  88 2.72  47 2.73
                            86 2.73
  46  0.250  0.250  0.317-  32 2.59  30 2.59  34 2.59  45 2.70  47 2.70  41 2.71  44 2.71  39 2.71
                            42 2.71
  47  0.334  0.332  0.316-  35 2.57  34 2.59  36 2.59  42 2.70  46 2.70 139 2.70  88 2.72  48 2.73
                            45 2.73
  48  0.418  0.415  0.316- 127 2.56  36 2.59  77 2.59 140 2.69 139 2.69 181 2.70  47 2.73  89 2.74
                            88 2.74
  49  0.000  0.583  0.000-  62 2.65  61 2.65 162 2.65   9 2.71  50 2.71 149 2.71 150 2.71  51 2.71
                           155 2.71
  50  0.167  0.500  0.000-  21 2.65  62 2.65  64 2.65   9 2.71  49 2.71  52 2.71  12 2.71  51 2.71
                            10 2.71
  51  0.083  0.667  0.000-  67 2.65  63 2.65  62 2.65  55 2.71 155 2.71  49 2.71  56 2.71  50 2.71
                            52 2.71
  52  0.250  0.583  0.000-  65 2.65  64 2.65  63 2.65  12 2.71  53 2.71  54 2.71  50 2.71  56 2.71
                            51 2.71
  53  0.417  0.500  0.000-  24 2.65  65 2.65 157 2.65 145 2.71 105 2.71  12 2.71  52 2.71 103 2.71
                            54 2.71
  54  0.333  0.667  0.000-  70 2.65  66 2.65  65 2.65  58 2.71  56 2.71  59 2.71 145 2.71  52 2.71
                            53 2.71
  55  1.000  0.833  0.000-  67 2.65 168 2.65  68 2.65  51 2.71 155 2.71 156 2.71  56 2.71 101 2.71
                            57 2.71
  56  0.167  0.750  0.000-  70 2.65  63 2.65  68 2.65  54 2.71  58 2.71  51 2.71  55 2.71  52 2.71
                            57 2.71
  57  0.083  0.917  0.000-  69 2.65  13 2.65  68 2.65   1 2.71   2 2.71 101 2.71  58 2.71  56 2.71
                            55 2.71
  58  0.250  0.833  0.000-  70 2.65  71 2.65  69 2.65  54 2.71  59 2.71  56 2.71  57 2.71  60 2.71
                             2 2.71
  59  0.417  0.750  0.000-  66 2.65  71 2.65 163 2.65  58 2.71  54 2.71 151 2.71 147 2.71 145 2.71
                            60 2.71
  60  0.333  0.917  0.000-  16 2.65  71 2.65  72 2.65   4 2.71   2 2.71  58 2.71   5 2.71  59 2.71
                           151 2.71
  61  0.000  0.500  0.107- 173 2.64  33 2.64  73 2.65 149 2.65  49 2.65   9 2.65  62 2.71 120 2.71
                           161 2.71  21 2.71 162 2.71  20 2.71
  62  0.083  0.583  0.107-  73 2.64  74 2.64  75 2.64  49 2.65  50 2.65  51 2.65  21 2.71  61 2.71
                           162 2.71  64 2.71  67 2.71  63 2.71
  63  0.167  0.667  0.107-  75 2.64  80 2.64  76 2.65  56 2.65  51 2.65  52 2.65  68 2.71  70 2.71
                            65 2.71  67 2.71  64 2.71  62 2.71
  64  0.250  0.500  0.107-  36 2.65  74 2.65  76 2.65  52 2.65  12 2.65  50 2.65  65 2.71  24 2.71
                            21 2.71  62 2.71  63 2.71  23 2.71
  65  0.333  0.583  0.107-  77 2.64  78 2.64  76 2.64  52 2.65  53 2.65  54 2.65  24 2.71  64 2.71
                            63 2.71 157 2.71  70 2.71  66 2.71
  66  0.417  0.667  0.107-  78 2.64 169 2.64  83 2.64  59 2.65 145 2.65  54 2.65  71 2.71 163 2.71
                           158 2.71  70 2.71 157 2.71  65 2.71
  67  1.000  0.750  0.107-  79 2.64 179 2.64  75 2.64 155 2.65  55 2.65  51 2.65 162 2.71 167 2.71
                            68 2.71  63 2.71 168 2.71  62 2.71
  68  0.083  0.833  0.107-  79 2.64  81 2.64  80 2.64  56 2.65  55 2.65  57 2.65  63 2.71  70 2.71
                           168 2.71  69 2.71  67 2.71  13 2.71
  69  0.167  0.917  0.107-  81 2.64  26 2.64  82 2.64  57 2.65   2 2.65  58 2.65  14 2.71  13 2.71
                            68 2.71  16 2.71  70 2.71  71 2.71
  70  0.250  0.750  0.107-  82 2.64  80 2.64  78 2.64  56 2.65  54 2.65  58 2.65  63 2.71  68 2.71
                            71 2.71  66 2.71  65 2.71  69 2.71
  71  0.333  0.833  0.107-  84 2.64  82 2.64  83 2.64  59 2.65  60 2.65  58 2.65  66 2.71 163 2.71
                            72 2.71  70 2.71  16 2.71  69 2.71
  72  0.417  0.917  0.107- 175 2.64  29 2.64  84 2.64   5 2.65  60 2.65 151 2.65  17 2.71  16 2.71
                           164 2.71  71 2.71 109 2.71 163 2.71
  73  0.000  0.584  0.214-  86 2.56  85 2.58 186 2.59  62 2.64 162 2.64  61 2.65  74 2.71  75 2.71
                           179 2.71 174 2.71  33 2.72 173 2.72
  74  0.166  0.500  0.214-  45 2.59  86 2.60  88 2.61  21 2.64  62 2.64  64 2.65  73 2.71  33 2.71
                            75 2.71  34 2.71  36 2.72  76 2.72
  75  0.083  0.667  0.214-  87 2.59  86 2.59  91 2.59  63 2.64  62 2.64  67 2.64  73 2.71  80 2.71
                            74 2.71  76 2.71  79 2.72 179 2.72
  76  0.250  0.583  0.214-  89 2.60  87 2.60  88 2.61  65 2.64  63 2.65  64 2.65  78 2.71  77 2.71
                            80 2.71  75 2.71  36 2.72  74 2.72
  77  0.417  0.500  0.213-  89 2.58 181 2.59  48 2.59  65 2.64 157 2.64  24 2.64  78 2.71  76 2.71
                           127 2.71  36 2.71 129 2.72 169 2.72
  78  0.334  0.667  0.214-  89 2.57  90 2.58  94 2.59  66 2.64  65 2.64  70 2.64  77 2.71  76 2.71
                           169 2.71  82 2.71  83 2.71  80 2.72
  79  1.000  0.834  0.213-  92 2.59 192 2.59  91 2.59 168 2.64  68 2.64  67 2.64 180 2.71 125 2.71
                           179 2.71  81 2.71  80 2.71  75 2.72
  80  0.167  0.750  0.214-  87 2.57  92 2.59  94 2.59  68 2.64  70 2.64  63 2.64  75 2.71  82 2.71
                            81 2.71  76 2.71  79 2.71  78 2.72
  81  0.083  0.917  0.213-  92 2.58  93 2.59  37 2.59  69 2.64  13 2.64  68 2.64  80 2.71  82 2.71
                            26 2.71  79 2.71 125 2.71  25 2.71
  82  0.250  0.833  0.214-  94 2.57  93 2.59  95 2.59  70 2.64  69 2.64  71 2.64  80 2.71  81 2.71
                            26 2.71  84 2.71  78 2.71  83 2.72
  83  0.417  0.750  0.214-  90 2.58 187 2.58  95 2.59 163 2.64  66 2.64  71 2.64 171 2.71 175 2.71
                           169 2.71  78 2.71  84 2.71  82 2.72
  84  0.333  0.917  0.213-  95 2.59  96 2.59  40 2.59  16 2.64  71 2.64  72 2.64  28 2.71  26 2.71
                            82 2.71  29 2.71 175 2.71  83 2.71
  85  0.000  0.500  0.316-  33 2.58  73 2.58 173 2.59  86 2.70  45 2.70 185 2.71  44 2.71 144 2.71
                           186 2.72
  86  0.081  0.584  0.316-  73 2.56  75 2.59  74 2.60 186 2.69  85 2.70  91 2.70  45 2.73  87 2.74
                            88 2.74
  87  0.165  0.669  0.317-  80 2.57  75 2.59  76 2.60  92 2.69  91 2.70  94 2.72  86 2.74  88 2.75
                            89 2.75
  88  0.250  0.500  0.318- 195 2.04  36 2.60  74 2.61  76 2.61  47 2.72  45 2.72  48 2.74  89 2.74
                            86 2.74  87 2.75
  89  0.335  0.584  0.317-  78 2.57  77 2.58  76 2.60  90 2.69 181 2.70  94 2.72  48 2.74  88 2.74
                            87 2.75
  90  0.416  0.667  0.317-  83 2.58  78 2.58 169 2.59  89 2.69  95 2.70  94 2.70 187 2.72 182 2.72
                           181 2.73
  91  1.000  0.750  0.317- 179 2.59  75 2.59  79 2.59  87 2.70  86 2.70 191 2.71  92 2.71 192 2.71
                           186 2.71
  92  0.083  0.834  0.316-  81 2.58  80 2.59  79 2.59  87 2.69 192 2.71  37 2.71  93 2.71  91 2.71
                            94 2.72
  93  0.166  0.917  0.316-  26 2.59  81 2.59  82 2.59  94 2.70  38 2.71  37 2.71  92 2.71  40 2.71
                            95 2.72
  94  0.250  0.751  0.316-  82 2.57  80 2.59  78 2.59  95 2.70  93 2.70  90 2.70  87 2.72  92 2.72
                            89 2.72
  95  0.334  0.833  0.317-  83 2.59  84 2.59  82 2.59 187 2.70  94 2.70  90 2.70  96 2.71  40 2.72
                            93 2.72
  96  0.417  0.917  0.316-  84 2.59  29 2.59 175 2.59 187 2.69 188 2.71  95 2.71  41 2.71 133 2.71
                            40 2.71
  97  0.500  0.083  0.000- 110 2.65 109 2.65  18 2.65 153 2.71  98 2.71  99 2.71   5 2.71  11 2.71
                             6 2.71
  98  0.667  0.000  0.000- 165 2.65 110 2.65 112 2.65 156 2.71 100 2.71  97 2.71 153 2.71  99 2.71
                           154 2.71
  99  0.583  0.167  0.000- 115 2.65 111 2.65 110 2.65 103 2.71 104 2.71  11 2.71 100 2.71  97 2.71
                            98 2.71
 100  0.750  0.083  0.000- 112 2.65 111 2.65 113 2.65 156 2.71  98 2.71  99 2.71 101 2.71 104 2.71
                           102 2.71
 101  0.917  0.000  0.000-  13 2.65 168 2.65 113 2.65   1 2.71  57 2.71 100 2.71 156 2.71 102 2.71
                            55 2.71
 102  0.833  0.167  0.000- 114 2.65 118 2.65 113 2.65 106 2.71 107 2.71   1 2.71 104 2.71 101 2.71
                           100 2.71
 103  0.500  0.333  0.000- 115 2.65 116 2.65  24 2.65  99 2.71 104 2.71  11 2.71  12 2.71 105 2.71
                            53 2.71
 104  0.667  0.250  0.000- 111 2.65 116 2.65 118 2.65  99 2.71 103 2.71 106 2.71 102 2.71 100 2.71
                           105 2.71
 105  0.583  0.417  0.000- 157 2.65 116 2.65 117 2.65 145 2.71  53 2.71 103 2.71 146 2.71 104 2.71
                           106 2.71
 106  0.750  0.333  0.000- 119 2.65 118 2.65 117 2.65 102 2.71 107 2.71 108 2.71 104 2.71 146 2.71
                           105 2.71
 107  0.917  0.250  0.000-  19 2.65 114 2.65 119 2.65   7 2.71   3 2.71 102 2.71 106 2.71   1 2.71
                           108 2.71
 108  0.833  0.417  0.000- 160 2.65 120 2.65 119 2.65 148 2.71 146 2.71   7 2.71 106 2.71 149 2.71
                           107 2.71
 109  0.500  0.000  0.107-  29 2.64 177 2.64 121 2.64 153 2.65  97 2.65   5 2.65 110 2.71 165 2.71
                            72 2.71  17 2.71  18 2.71 164 2.71
 110  0.583  0.083  0.107- 121 2.64 122 2.64 123 2.64  97 2.65  98 2.65  99 2.65 165 2.71 109 2.71
                            18 2.71 112 2.71 115 2.71 111 2.71
 111  0.667  0.167  0.107- 123 2.64 128 2.64 124 2.64 104 2.65 100 2.65  99 2.65 116 2.71 118 2.71
                           113 2.71 115 2.71 112 2.71 110 2.71
 112  0.750  0.000  0.107- 122 2.64 180 2.64 124 2.64 156 2.65 100 2.65  98 2.65 113 2.71 168 2.71
                           165 2.71 110 2.71 111 2.71 167 2.71
 113  0.833  0.083  0.107- 126 2.64 125 2.64 124 2.64 101 2.65 100 2.65 102 2.65 168 2.71 112 2.71
                            13 2.71 111 2.71 114 2.71 118 2.71
 114  0.917  0.167  0.107-  25 2.64 126 2.64 131 2.64 102 2.65 107 2.65   1 2.65 119 2.71  19 2.71
                           118 2.71  14 2.71 113 2.71  13 2.71
 115  0.500  0.250  0.107- 123 2.64  35 2.64 127 2.65  11 2.65 103 2.65  99 2.65  18 2.71  23 2.71
                           116 2.71 111 2.71  24 2.71 110 2.71
 116  0.583  0.333  0.107- 128 2.64 129 2.64 127 2.64 104 2.65 105 2.65 103 2.65 111 2.71 118 2.71
                           117 2.71 115 2.71 157 2.71  24 2.71
 117  0.667  0.417  0.107- 129 2.64 130 2.64 170 2.64 146 2.65 105 2.65 106 2.65 158 2.71 160 2.71
                           157 2.71 119 2.71 116 2.71 118 2.71
 118  0.750  0.250  0.107- 126 2.64 130 2.64 128 2.64 106 2.65 102 2.65 104 2.65 111 2.71 116 2.71
                           119 2.71 114 2.71 113 2.71 117 2.71
 119  0.833  0.333  0.107- 131 2.64 130 2.64 132 2.64 106 2.65 107 2.65 108 2.65 114 2.71  19 2.71
                           118 2.71 117 2.71 160 2.71 120 2.71
 120  0.917  0.417  0.107- 173 2.64  31 2.64 132 2.64 149 2.65   7 2.65 108 2.65 161 2.71  61 2.71
                            20 2.71 160 2.71  19 2.71 119 2.71
 121  0.500  0.083  0.214- 133 2.59 134 2.59  42 2.59 110 2.64 109 2.64  18 2.64 122 2.71 123 2.71
                           177 2.71  35 2.71  29 2.71  30 2.71
 122  0.667  0.000  0.214- 134 2.59 189 2.59 136 2.59 110 2.64 165 2.64 112 2.64 121 2.71 123 2.71
                           177 2.71 124 2.71 180 2.71 178 2.71
 123  0.583  0.167  0.214- 134 2.59 135 2.59 139 2.59 111 2.64 110 2.64 115 2.64 121 2.71 122 2.71
                           124 2.71 128 2.71  35 2.72 127 2.72
 124  0.750  0.083  0.214- 137 2.58 135 2.59 136 2.59 111 2.64 113 2.64 112 2.64 128 2.71 123 2.71
                           180 2.71 125 2.71 126 2.71 122 2.71
 125  0.917  0.000  0.214- 192 2.59  37 2.59 137 2.59 113 2.64  13 2.64 168 2.64 126 2.71  79 2.71
                           124 2.71 180 2.71  81 2.71  25 2.71
 126  0.833  0.167  0.213- 137 2.59 142 2.59 138 2.59 114 2.64 113 2.64 118 2.64 125 2.71  25 2.71
                           124 2.71 131 2.71 128 2.71 130 2.71
 127  0.500  0.334  0.214-  48 2.56 140 2.59 139 2.59  24 2.64 116 2.64 115 2.65  36 2.71  77 2.71
                           129 2.71  35 2.71 128 2.71 123 2.72
 128  0.667  0.250  0.214- 140 2.59 135 2.59 142 2.59 111 2.64 118 2.64 116 2.64 124 2.71 123 2.71
                           130 2.71 126 2.71 127 2.71 129 2.71
 129  0.583  0.417  0.214- 181 2.58 140 2.59 141 2.59 117 2.64 157 2.64 116 2.64 130 2.71 170 2.71
                           169 2.71 127 2.71 128 2.71  77 2.72
 130  0.750  0.333  0.214- 141 2.58 143 2.59 142 2.59 117 2.64 118 2.64 119 2.64 129 2.71 128 2.71
                           170 2.71 132 2.71 126 2.71 131 2.71
 131  0.917  0.250  0.213- 143 2.59  43 2.59 138 2.59  19 2.64 119 2.64 114 2.64  25 2.71  27 2.71
                            31 2.71 126 2.71 132 2.71 130 2.71
 132  0.833  0.417  0.214- 184 2.58 144 2.58 143 2.59 160 2.64 119 2.64 120 2.64 172 2.71 173 2.71
                           170 2.71  31 2.71 130 2.71 131 2.71
 133  0.500  0.000  0.316- 121 2.59 177 2.59  29 2.59 188 2.70  42 2.71 134 2.71 189 2.71  96 2.71
                            41 2.71
 134  0.583  0.083  0.317- 121 2.59 122 2.59 123 2.59 189 2.71 133 2.71 136 2.71 135 2.71 139 2.71
                            42 2.71
 135  0.667  0.167  0.317- 124 2.59 128 2.59 123 2.59 137 2.71 136 2.71 142 2.71 134 2.71 139 2.71
                           140 2.71
 136  0.750  0.000  0.317- 124 2.59 180 2.59 122 2.59 137 2.71 192 2.71 135 2.71 191 2.71 134 2.71
                           189 2.71
 137  0.833  0.083  0.316- 124 2.58 125 2.59 126 2.59 192 2.71 142 2.71 136 2.71 135 2.71  37 2.71
                           138 2.71
 138  0.917  0.167  0.317-  25 2.59 126 2.59 131 2.59  37 2.71 142 2.71  38 2.71  43 2.71 137 2.71
                           143 2.71
 139  0.500  0.250  0.317-  35 2.59 127 2.59 123 2.59  48 2.69  47 2.70  42 2.71 134 2.71 135 2.71
                           140 2.72
 140  0.584  0.333  0.316- 128 2.59 127 2.59 129 2.59  48 2.69 181 2.70 141 2.71 142 2.71 135 2.71
                           139 2.72
 141  0.667  0.416  0.317- 130 2.58 129 2.59 170 2.59 140 2.71 143 2.71 181 2.71 142 2.71 184 2.71
                           182 2.71
 142  0.750  0.250  0.317- 126 2.59 130 2.59 128 2.59 137 2.71 138 2.71 141 2.71 135 2.71 143 2.71
                           140 2.71
 143  0.833  0.333  0.317- 132 2.59 130 2.59 131 2.59 184 2.70 141 2.71  43 2.71 144 2.71 142 2.71
                           138 2.71
 144  0.917  0.417  0.316- 132 2.58  31 2.59 173 2.59 184 2.70  85 2.71 185 2.71  44 2.71 143 2.71
                            43 2.71
 145  0.500  0.583  0.000- 157 2.65  66 2.65 158 2.65 105 2.71  53 2.71  54 2.71 146 2.71  59 2.71
                           147 2.71
 146  0.667  0.500  0.000- 160 2.65 117 2.65 158 2.65 108 2.71 148 2.71 105 2.71 145 2.71 147 2.71
                           106 2.71
 147  0.583  0.667  0.000- 159 2.65 163 2.65 158 2.65 151 2.71 152 2.71 148 2.71  59 2.71 146 2.71
                           145 2.71
 148  0.750  0.583  0.000- 160 2.65 161 2.65 159 2.65 108 2.71 146 2.71 147 2.71 149 2.71 152 2.71
                           150 2.71
 149  0.917  0.500  0.000-  61 2.65 120 2.65 161 2.65  49 2.71   9 2.71 148 2.71 108 2.71 150 2.71
                             7 2.71
 150  0.833  0.667  0.000- 162 2.65 166 2.65 161 2.65 154 2.71 155 2.71  49 2.71 152 2.71 149 2.71
                           148 2.71
 151  0.500  0.833  0.000- 164 2.65 163 2.65  72 2.65 147 2.71 152 2.71 153 2.71  59 2.71   5 2.71
                            60 2.71
 152  0.667  0.750  0.000- 159 2.65 164 2.65 166 2.65 147 2.71 151 2.71 154 2.71 150 2.71 148 2.71
                           153 2.71
 153  0.583  0.917  0.000- 109 2.65 165 2.65 164 2.65  97 2.71   5 2.71 151 2.71  98 2.71 152 2.71
                           154 2.71
 154  0.750  0.833  0.000- 167 2.65 166 2.65 165 2.65 150 2.71 155 2.71 156 2.71 152 2.71  98 2.71
                           153 2.71
 155  0.917  0.750  0.000-  67 2.65 162 2.65 167 2.65  55 2.71  51 2.71 150 2.71 154 2.71  49 2.71
                           156 2.71
 156  0.833  0.917  0.000- 112 2.65 168 2.65 167 2.65 100 2.71  98 2.71  55 2.71 154 2.71 101 2.71
                           155 2.71
 157  0.500  0.500  0.107-  77 2.64 129 2.64 169 2.65 145 2.65 105 2.65  53 2.65 158 2.71 117 2.71
                            24 2.71  65 2.71 116 2.71  66 2.71
 158  0.583  0.583  0.107- 169 2.64 170 2.64 171 2.64 146 2.65 145 2.65 147 2.65 117 2.71 157 2.71
                           160 2.71  66 2.71 159 2.71 163 2.71
 159  0.667  0.667  0.107- 176 2.64 172 2.64 171 2.64 147 2.65 152 2.65 148 2.65 164 2.71 163 2.71
                           158 2.71 166 2.71 160 2.71 161 2.71
 160  0.750  0.500  0.107- 132 2.64 172 2.64 170 2.64 146 2.65 108 2.65 148 2.65 117 2.71 158 2.71
                           161 2.71 120 2.71 159 2.71 119 2.71
 161  0.833  0.583  0.107- 174 2.64 173 2.64 172 2.64 149 2.65 148 2.65 150 2.65 120 2.71  61 2.71
                           162 2.71 160 2.71 166 2.71 159 2.71
 162  0.917  0.667  0.107- 174 2.64 179 2.64  73 2.64 150 2.65 155 2.65  49 2.65 167 2.71  67 2.71
                           166 2.71  62 2.71 161 2.71  61 2.71
 163  0.500  0.750  0.107- 175 2.64  83 2.64 171 2.64 151 2.65 147 2.65  59 2.65  66 2.71 164 2.71
                           159 2.71  71 2.71  72 2.71 158 2.71
 164  0.583  0.833  0.107- 175 2.64 177 2.64 176 2.64 151 2.65 152 2.65 153 2.65 159 2.71 163 2.71
                            72 2.71 166 2.71 109 2.71 165 2.71
 165  0.667  0.917  0.107- 177 2.64 122 2.64 178 2.64  98 2.65 153 2.65 154 2.65 110 2.71 109 2.71
                           167 2.71 112 2.71 166 2.71 164 2.71
 166  0.750  0.750  0.107- 174 2.64 178 2.64 176 2.64 154 2.65 150 2.65 152 2.65 167 2.71 162 2.71
                           159 2.71 164 2.71 161 2.71 165 2.71
 167  0.833  0.833  0.107- 179 2.64 178 2.64 180 2.64 154 2.65 155 2.65 156 2.65 162 2.71  67 2.71
                           166 2.71 165 2.71 112 2.71 168 2.71
 168  0.917  0.917  0.107-  79 2.64 125 2.64 180 2.64 101 2.65  55 2.65 156 2.65 113 2.71 112 2.71
                            13 2.71  68 2.71  67 2.71 167 2.71
 169  0.500  0.583  0.214- 181 2.59  90 2.59 182 2.60 158 2.64  66 2.64 157 2.65 171 2.71 170 2.71
                            83 2.71 129 2.71  78 2.71  77 2.72
 170  0.667  0.500  0.214- 141 2.59 184 2.59 182 2.59 158 2.64 160 2.64 117 2.64 169 2.71 129 2.71
                           132 2.71 172 2.71 171 2.71 130 2.71
 171  0.583  0.667  0.214- 187 2.59 182 2.60 183 2.60 163 2.64 159 2.64 158 2.64 169 2.71  83 2.71
                           175 2.71 170 2.71 176 2.71 172 2.71
 172  0.750  0.583  0.214- 185 2.59 184 2.59 183 2.60 160 2.64 161 2.64 159 2.64 173 2.71 132 2.71
                           170 2.71 174 2.71 171 2.71 176 2.71
 173  0.917  0.500  0.213- 185 2.58  85 2.59 144 2.59 161 2.64 120 2.64  61 2.64 172 2.71 132 2.71
                            31 2.71 174 2.71  33 2.72  73 2.72
 174  0.833  0.667  0.213- 185 2.59 186 2.59 190 2.59 161 2.64 162 2.64 166 2.64 173 2.71 172 2.71
                           178 2.71 176 2.71  73 2.71 179 2.71
 175  0.500  0.833  0.213- 187 2.58 188 2.59  96 2.59 163 2.64  72 2.64 164 2.64  83 2.71 171 2.71
                           176 2.71  29 2.71 177 2.71  84 2.71
 176  0.667  0.750  0.214- 188 2.59 190 2.59 183 2.59 164 2.64 166 2.64 159 2.64 178 2.71 177 2.71
                           175 2.71 171 2.71 174 2.71 172 2.71
 177  0.583  0.917  0.213- 188 2.58 133 2.59 189 2.59 165 2.64 164 2.64 109 2.64 122 2.71 176 2.71
                           178 2.71 121 2.71  29 2.71 175 2.71
 178  0.750  0.833  0.214- 190 2.58 189 2.59 191 2.59 166 2.64 165 2.64 167 2.64 179 2.71 176 2.71
                           177 2.71 174 2.71 122 2.71 180 2.71
 179  0.917  0.750  0.213- 186 2.59  91 2.59 191 2.59 167 2.64  67 2.64 162 2.64 178 2.71 180 2.71
                            79 2.71  73 2.71 174 2.71  75 2.72
 180  0.833  0.917  0.214- 192 2.59 191 2.59 136 2.59 168 2.64 112 2.64 167 2.64  79 2.71 179 2.71
                           124 2.71 125 2.71 122 2.71 178 2.71
 181  0.500  0.499  0.316- 129 2.58  77 2.59 169 2.59  89 2.70 140 2.70  48 2.70 141 2.71 182 2.72
                            90 2.73
 182  0.584  0.583  0.317- 170 2.59 169 2.60 171 2.60 141 2.71 181 2.72 184 2.72 183 2.72  90 2.72
                           187 2.73
 183  0.667  0.667  0.317- 176 2.59 172 2.60 171 2.60 190 2.71 185 2.71 188 2.72 182 2.72 187 2.73
                           184 2.73
 184  0.751  0.499  0.317- 132 2.58 170 2.59 172 2.59 143 2.70 144 2.70 141 2.71 185 2.72 182 2.72
                           183 2.73
 185  0.834  0.583  0.316- 173 2.58 172 2.59 174 2.59  85 2.71 186 2.71 144 2.71 183 2.71 184 2.72
                           190 2.72
 186  0.916  0.667  0.317-  73 2.59 179 2.59 174 2.59  86 2.69 190 2.71 191 2.71 185 2.71  91 2.71
                            85 2.72
 187  0.499  0.751  0.316- 175 2.58  83 2.58 171 2.59  96 2.69  95 2.70 188 2.71  90 2.72 183 2.73
                           182 2.73
 188  0.583  0.834  0.316- 177 2.58 175 2.59 176 2.59 133 2.70  96 2.71 189 2.71 187 2.71 183 2.72
                           190 2.72
 189  0.667  0.917  0.317- 178 2.59 122 2.59 177 2.59 188 2.71 190 2.71 191 2.71 134 2.71 133 2.71
                           136 2.71
 190  0.750  0.750  0.317- 178 2.58 176 2.59 174 2.59 186 2.71 191 2.71 189 2.71 183 2.71 185 2.72
                           188 2.72
 191  0.833  0.833  0.317- 178 2.59 180 2.59 179 2.59 190 2.71 186 2.71  91 2.71 189 2.71 136 2.71
                           192 2.71
 192  0.917  0.917  0.316- 125 2.59 180 2.59  79 2.59  92 2.71 137 2.71 136 2.71  37 2.71  91 2.71
                           191 2.71
 193  0.212  0.444  0.541- 225 1.10
 194  0.179  0.437  0.461- 225 1.11
 195  0.219  0.533  0.415- 226 1.14  88 2.04
 196  0.304  0.443  0.453- 226 1.10
 197  0.259  0.550  0.558- 228 1.11
 198  0.361  0.551  0.440- 229 1.12
 199  0.394  0.467  0.494- 229 1.10
 200  0.448  0.515  0.567- 231 1.10
 201  0.401  0.651  0.463- 232 1.11
 202  0.484  0.549  0.458- 232 1.11
 203  0.520  0.593  0.579- 234 1.11
 204  0.568  0.620  0.440- 235 1.12
 205  0.611  0.525  0.484- 235 1.10
 206  0.633  0.622  0.577- 237 1.11
 207  0.740  0.482  0.540- 238 1.10
 208  0.780  0.550  0.540- 238 1.10
 209  0.752  0.523  0.463- 238 1.11
 210  0.105  0.593  0.549- 227 1.10
 211  0.059  0.532  0.530- 227 1.10
 212  0.072  0.590  0.466- 227 1.11
 213  0.143  0.664  0.489- 230 1.10
 214  0.221  0.659  0.434- 230 1.12
 215  0.216  0.692  0.518- 230 1.10
 216  0.307  0.693  0.570- 233 1.10
 217  0.388  0.639  0.627- 233 1.10
 218  0.310  0.613  0.620- 233 1.10
 219  0.445  0.750  0.493- 236 1.10
 220  0.499  0.735  0.570- 236 1.10
 221  0.402  0.739  0.569- 236 1.10
 222  0.664  0.676  0.440- 239 1.11
 223  0.687  0.703  0.519- 239 1.10
 224  0.582  0.742  0.494- 239 1.10
 225  0.185  0.479  0.495- 193 1.10 194 1.11 227 1.53 226 1.53
 226  0.247  0.500  0.465- 196 1.10 195 1.14 225 1.53 228 1.54
 227  0.101  0.553  0.511- 211 1.10 210 1.10 212 1.11 225 1.53
 228  0.267  0.558  0.505- 197 1.11 230 1.53 229 1.54 226 1.54
 229  0.357  0.534  0.493- 199 1.10 198 1.12 228 1.54 231 1.56
 230  0.208  0.648  0.486- 215 1.10 213 1.10 214 1.12 228 1.53
 231  0.401  0.568  0.538- 200 1.10 233 1.53 232 1.54 229 1.56
 232  0.447  0.599  0.494- 202 1.11 201 1.11 231 1.54 234 1.54
 233  0.348  0.632  0.591- 216 1.10 217 1.10 218 1.10 231 1.53
 234  0.503  0.624  0.530- 203 1.11 236 1.53 235 1.54 232 1.54
 235  0.584  0.592  0.491- 205 1.10 204 1.12 234 1.54 237 1.54
 236  0.460  0.717  0.542- 221 1.10 220 1.10 219 1.10 234 1.53
 237  0.648  0.611  0.523- 206 1.11 239 1.53 238 1.53 235 1.54
 238  0.735  0.537  0.516- 207 1.10 208 1.10 209 1.11 237 1.53
 239  0.644  0.688  0.493- 224 1.10 223 1.10 222 1.11 237 1.53
 
  LATTYP: Found a hexagonal cell.
 ALAT       =    18.7899500611
 C/A-ratio  =     1.0643987842
  
  Lattice vectors:
  
 A1 = (   9.3949750305, -16.2725740888,   0.0000000000)
 A2 = ( -18.7899500611,   0.0000000000,   0.0000000000)
 A3 = (   0.0000000000,   0.0000000000, -20.0000000000)


Analysis of symmetry for initial positions (statically):
=====================================================================
 Subroutine PRICEL returns:
 Original cell was already a primitive cell.
 

 Routine SETGRP: Setting up the symmetry group for a 
 hexagonal supercell.


 Subroutine GETGRP returns: Found  1 space group operations
 (whereof  1 operations were pure point group operations)
 out of a pool of 24 trial point group operations.


The static configuration has the point symmetry C_1 .


Analysis of symmetry for dynamics (positions and initial velocities):
=====================================================================
 Subroutine PRICEL returns:
 Original cell was already a primitive cell.
 

 Routine SETGRP: Setting up the symmetry group for a 
 hexagonal supercell.


 Subroutine GETGRP returns: Found  1 space group operations
 (whereof  1 operations were pure point group operations)
 out of a pool of 24 trial point group operations.


The dynamic configuration has the point symmetry C_1 .


Analysis of constrained symmetry for selective dynamics:
=====================================================================
 Subroutine PRICEL returns:
 Original cell was already a primitive cell.
 

 Routine SETGRP: Setting up the symmetry group for a 
 hexagonal supercell.


 Subroutine GETGRP returns: Found  1 space group operations
 (whereof  1 operations were pure point group operations)
 out of a pool of 24 trial point group operations.


The constrained configuration has the point symmetry C_1 .


 Subroutine INISYM returns: Found  1 space group operations
 (whereof  1 operations are pure point group operations),
 and found     1 'primitive' translations

 
 
 KPOINTS: K-POINTS                                

Automatic generation of k-mesh.
Space group operators:
 irot       det(A)        alpha          n_x          n_y          n_z        tau_x        tau_y        tau_z
    1     1.000000     0.000000     1.000000     0.000000     0.000000     0.000000     0.000000     0.000000
 
 Subroutine IBZKPT returns following result:
 ===========================================
 
 Found      5 irreducible k-points:
 
 Following reciprocal coordinates:
            Coordinates               Weight
  0.000000  0.000000  0.000000      1.000000
  0.333333  0.000000  0.000000      2.000000
  0.000000  0.333333  0.000000      2.000000
  0.333333  0.333333  0.000000      2.000000
 -0.333333  0.333333  0.000000      2.000000
 
 Following cartesian coordinates:
            Coordinates               Weight
  0.000000  0.000000  0.000000      1.000000
  0.017740 -0.010242  0.000000      2.000000
  0.000000  0.020484  0.000000      2.000000
  0.017740  0.010242  0.000000      2.000000
 -0.017740  0.030727  0.000000      2.000000
 


--------------------------------------------------------------------------------------------------------




 Dimension of arrays:
   k-points           NKPTS =      5   k-points in BZ     NKDIM =      5   number of bands    NBANDS=   1008
   number of dos      NEDOS =    301   number of ions     NIONS =    239
   non local maximal  LDIM  =      6   non local SUM 2l+1 LMDIM =     18
   total plane-waves  NPLWV = ******
   max r-space proj   IRMAX =   2490   max aug-charges    IRDMAX=  11670
   dimension x,y,z NGX =    98 NGY =   98 NGZ =  108
   dimension x,y,z NGXF=   196 NGYF=  196 NGZF=  216
   support grid    NGXF=   196 NGYF=  196 NGZF=  216
   ions per type =             192  32  15
   NGX,Y,Z   is equivalent  to a cutoff of   8.67,  8.67,  8.98 a.u.
   NGXF,Y,Z  is equivalent  to a cutoff of  17.34, 17.34, 17.95 a.u.

 SYSTEM =  x                                       
 POSCAR =  Ru  H  C                                

 Startparameter for this run:
   NWRITE =      0    write-flag & timer
   PREC   = normal    normal or accurate (medium, high low for compatibility)
   ISTART =      0    job   : 0-new  1-cont  2-samecut
   ICHARG =      2    charge: 1-file 2-atom 10-const
   ISPIN  =      1    spin polarized calculation?
   LNONCOLLINEAR =      F non collinear calculations
   LSORBIT =      F    spin-orbit coupling
   INIWAV =      1    electr: 0-lowe 1-rand  2-diag
   LASPH  =      F    aspherical Exc in radial PAW
   METAGGA=      F    non-selfconsistent MetaGGA calc.

 Electronic Relaxation 1
   ENCUT  =  450.0 eV  33.07 Ry    5.75 a.u.  32.50 32.50 34.59*2*pi/ulx,y,z
   ENINI  =  450.0     initial cutoff
   ENAUG  =  644.9 eV  augmentation charge cutoff
   NELM   =     50;   NELMIN=  5; NELMDL= -7     # of ELM steps 
   EDIFF  = 0.1E-04   stopping-criterion for ELM
   LREAL  =      T    real-space projection
   NLSPLINE    = F    spline interpolate recip. space projectors
   LCOMPAT=      F    compatible to vasp.4.4
   GGA_COMPAT  = T    GGA compatible to vasp.4.4-vasp.4.6
   LMAXPAW     = -100 max onsite density
   LMAXMIX     =    2 max onsite mixed and CHGCAR
   VOSKOWN=      0    Vosko Wilk Nusair interpolation
   ROPT   =   -0.00050  -0.00050  -0.00050
 Ionic relaxation
   EDIFFG = -.2E-01   stopping-criterion for IOM
   NSW    =    400    number of steps for IOM
   NBLOCK =      1;   KBLOCK =    400    inner block; outer block 
   IBRION =      2    ionic relax: 0-MD 1-quasi-New 2-CG
   NFREE  =      2    steps in history (QN), initial steepest desc. (CG)
   ISIF   =      2    stress and relaxation
   IWAVPR =     11    prediction:  0-non 1-charg 2-wave 3-comb
   ISYM   =      2    0-nonsym 1-usesym 2-fastsym
   LCORR  =      T    Harris-Foulkes like correction to forces

   POTIM  = 0.1500    time-step for ionic-motion
   TEIN   =    0.0    initial temperature
   TEBEG  =    0.0;   TEEND  =   0.0 temperature during run
   SMASS  =  -3.00    Nose mass-parameter (am)
   estimated Nose-frequenzy (Omega)   =  0.10E-29 period in steps =****** mass=  -0.807E-26a.u.
   SCALEE = 1.0000    scale energy and forces
   NPACO  =    256;   APACO  = 16.0  distance and # of slots for P.C.
   PSTRESS=    0.0 pullay stress

  Mass of Ions in am
   POMASS = 101.07  1.00 12.01
  Ionic Valenz
   ZVAL   =   8.00  1.00  4.00
  Atomic Wigner-Seitz radii
   RWIGS  =  -1.00 -1.00 -1.00
  virtual crystal weights 
   VCA    =   1.00  1.00  1.00
   NELECT =    1628.0000    total number of electrons
   NUPDOWN=      -1.0000    fix difference up-down

 DOS related values:
   EMIN   =  10.00;   EMAX   =-10.00  energy-range for DOS
   EFERMI =   0.00
   ISMEAR =     0;   SIGMA  =   0.03  broadening in eV -4-tet -1-fermi 0-gaus

 Electronic relaxation 2 (details)
   IALGO  =     68    algorithm
   LDIAG  =      T    sub-space diagonalisation (order eigenvalues)
   LSUBROT=      F    optimize rotation matrix (better conditioning)
   TURBO    =      0    0=normal 1=particle mesh
   IRESTART =      0    0=no restart 2=restart with 2 vectors
   NREBOOT  =      0    no. of reboots
   NMIN     =      0    reboot dimension
   EREF     =   0.00    reference energy to select bands
   IMIX   =      4    mixing-type and parameters
     AMIX     =   0.40;   BMIX     =  1.00
     AMIX_MAG =   1.60;   BMIX_MAG =  1.00
     AMIN     =   0.10
     WC   =   100.;   INIMIX=   1;  MIXPRE=   1;  MAXMIX= -45

 Intra band minimization:
   WEIMIN = 0.0010     energy-eigenvalue tresh-hold
   EBREAK =  0.25E-08  absolut break condition
   DEPER  =   0.30     relativ break condition  

   TIME   =   0.40     timestep for ELM

  volume/ion in A,a.u.               =      25.59       172.67
  Fermi-wavevector in a.u.,A,eV,Ry     =   1.053147  1.990159 15.090475  1.109119
  Thomas-Fermi vector in A             =   2.188257
 
 Write flags
   LWAVE        =      F    write WAVECAR
   LDOWNSAMPLE  =      F    k-point downsampling of WAVECAR
   LCHARG       =      F    write CHGCAR
   LVTOT        =      F    write LOCPOT, total local potential
   LVHAR        =      F    write LOCPOT, Hartree potential only
   LELF         =      F    write electronic localiz. function (ELF)
   LORBIT       =      0    0 simple, 1 ext, 2 COOP (PROOUT), +10 PAW based schemes


 Dipole corrections
   LMONO  =      F    monopole corrections only (constant potential shift)
   LDIPOL =      T    correct potential (dipole corrections)
   IDIPOL =      3    1-x, 2-y, 3-z, 4-all directions 
   EPSILON=  1.0000000 bulk dielectric constant

 Exchange correlation treatment:
   GGA     =    PE    GGA type
   LEXCH   =     8    internal setting for exchange type
   VOSKOWN=      0    Vosko Wilk Nusair interpolation
   LHFCALC =     F    Hartree Fock is set to
   LHFONE  =     F    Hartree Fock one center treatment
   AEXX    =    0.0000 exact exchange contribution

 Linear response parameters
   LEPSILON=     F    determine dielectric tensor
   LRPA    =     F    only Hartree local field effects (RPA)
   LNABLA  =     F    use nabla operator in PAW spheres
   LVEL    =     F    velocity operator in full k-point grid
   LINTERFAST=   F  fast interpolation
   KINTER  =     0    interpolate to denser k-point grid
   CSHIFT  =0.1000    complex shift for real part using Kramers Kronig
   OMEGAMAX=  -1.0    maximum frequency
   DEG_THRESHOLD= 0.2000000E-02 threshold for treating states as degnerate
   RTIME   =   -0.100 relaxation time in fs
  (WPLASMAI=    0.000 imaginary part of plasma frequency in eV, 0.658/RTIME)
   DFIELD  = 0.0000000 0.0000000 0.0000000 field for delta impulse in time
 
 Orbital magnetization related:
   ORBITALMAG=     F  switch on orbital magnetization
   LCHIMAG   =     F  perturbation theory with respect to B field
   DQ        =  0.001000  dq finite difference perturbation B field
   LLRAUG    =     F  two centre corrections for induced B field



--------------------------------------------------------------------------------------------------------


 conjugate gradient relaxation of ions
   using selective dynamics as specified on POSCAR
 charge density and potential will be updated during run
 non-spin polarized calculation
 RMM-DIIS sequential band-by-band and
  variant of blocked Davidson during initial phase
 perform sub-space diagonalisation
    before iterative eigenvector-optimisation
 modified Broyden-mixing scheme, WC =      100.0
 initial mixing is a Kerker type mixing with AMIX =  0.4000 and BMIX =      1.0000
 Hartree-type preconditioning will be used
 using additional bands          194
 real space projection scheme for non local part
 use partial core corrections
 calculate Harris-corrections to forces 
   (improved forces if not selfconsistent)
 use gradient corrections 
 use of overlap-Matrix (Vanderbilt PP)
 Gauss-broadening in eV      SIGMA  =   0.03


--------------------------------------------------------------------------------------------------------


  energy-cutoff  :      450.00
  volume of cell :     6115.22
      direct lattice vectors                 reciprocal lattice vectors
    18.789950061  0.000000000  0.000000000     0.053219939 -0.030726546  0.000000000
     9.394975031 16.272574089  0.000000000     0.000000000  0.061453092  0.000000000
     0.000000000  0.000000000 20.000000000     0.000000000  0.000000000  0.050000000

  length of vectors
    18.789950061 18.789950061 20.000000000     0.061453092  0.061453092  0.050000000


 
 k-points in units of 2pi/SCALE and weight: K-POINTS                                
   0.00000000  0.00000000  0.00000000       0.111
   0.01773998 -0.01024218  0.00000000       0.222
   0.00000000  0.02048436  0.00000000       0.222
   0.01773998  0.01024218  0.00000000       0.222
  -0.01773998  0.03072655  0.00000000       0.222
 
 k-points in reciprocal lattice and weights: K-POINTS                                
   0.00000000  0.00000000  0.00000000       0.111
   0.33333333  0.00000000  0.00000000       0.222
   0.00000000  0.33333333  0.00000000       0.222
   0.33333333  0.33333333  0.00000000       0.222
  -0.33333333  0.33333333  0.00000000       0.222
 
 position of ions in fractional coordinates (direct lattice) 
   0.00000000  0.08333333  0.00000000
   0.16666667  0.00000000  0.00000000
   0.08333333  0.16666667  0.00000000
   0.25000000  0.08333333  0.00000000
   0.41666667  0.00000000  0.00000000
   0.33333333  0.16666667  0.00000000
   1.00000000  0.33333333  0.00000000
   0.16666667  0.25000000  0.00000000
   0.08333333  0.41666667  0.00000000
   0.25000000  0.33333333  0.00000000
   0.41666667  0.25000000  0.00000000
   0.33333333  0.41666667  0.00000000
   0.00000000  0.00000000  0.10719781
   0.08333333  0.08333333  0.10719781
   0.16666667  0.16666667  0.10719781
   0.25000000  0.00000000  0.10719781
   0.33333333  0.08333333  0.10719781
   0.41666667  0.16666667  0.10719781
   1.00000000  0.25000000  0.10719781
   0.08333333  0.33333333  0.10719781
   0.16666667  0.41666667  0.10719781
   0.25000000  0.25000000  0.10719781
   0.33333333  0.33333333  0.10719781
   0.41666667  0.41666667  0.10719781
   0.00006079  0.08345813  0.21345199
   0.16663108  0.00000240  0.21350166
   0.08330949  0.16675882  0.21354945
   0.25001499  0.08328381  0.21358070
   0.41669206  0.00004257  0.21342531
   0.33342212  0.16660483  0.21356215
   0.99992921  0.33339972  0.21355978
   0.16678002  0.24992416  0.21361629
   0.08357247  0.41648078  0.21359783
   0.24997517  0.33331353  0.21335619
   0.41655134  0.25005679  0.21364408
   0.33339775  0.41657937  0.21387335
   0.99988420  0.00026173  0.31640058
   0.08337017  0.08337048  0.31649719
   0.16667984  0.16668613  0.31662295
   0.24989915  0.00017978  0.31663353
   0.33326778  0.08342319  0.31648119
   0.41667657  0.16663216  0.31650047
   0.99998412  0.24996716  0.31662441
   0.08332468  0.33333820  0.31650722
   0.16610691  0.41613136  0.31643569
   0.24997001  0.25006710  0.31670585
   0.33385941  0.33226069  0.31630562
   0.41820719  0.41542118  0.31619019
   0.00000000  0.58333333  0.00000000
   0.16666667  0.50000000  0.00000000
   0.08333333  0.66666667  0.00000000
   0.25000000  0.58333333  0.00000000
   0.41666667  0.50000000  0.00000000
   0.33333333  0.66666667  0.00000000
   1.00000000  0.83333333  0.00000000
   0.16666667  0.75000000  0.00000000
   0.08333333  0.91666667  0.00000000
   0.25000000  0.83333333  0.00000000
   0.41666667  0.75000000  0.00000000
   0.33333333  0.91666667  0.00000000
   0.00000000  0.50000000  0.10719781
   0.08333333  0.58333333  0.10719781
   0.16666667  0.66666667  0.10719781
   0.25000000  0.50000000  0.10719781
   0.33333333  0.58333333  0.10719781
   0.41666667  0.66666667  0.10719781
   1.00000000  0.75000000  0.10719781
   0.08333333  0.83333333  0.10719781
   0.16666667  0.91666667  0.10719781
   0.25000000  0.75000000  0.10719781
   0.33333333  0.83333333  0.10719781
   0.41666667  0.91666667  0.10719781
   0.00006769  0.58354243  0.21377333
   0.16643742  0.49999975  0.21377289
   0.08345812  0.66665172  0.21366510
   0.25012924  0.58346552  0.21383306
   0.41659003  0.50014790  0.21334796
   0.33350282  0.66652669  0.21366301
   0.99978857  0.83355301  0.21333689
   0.16657395  0.75009869  0.21369480
   0.08335678  0.91667586  0.21344433
   0.24994080  0.83330694  0.21357481
   0.41685807  0.74996690  0.21367737
   0.33317414  0.91680126  0.21349175
   0.00002999  0.49983245  0.31630002
   0.08148289  0.58409784  0.31643202
   0.16548494  0.66856226  0.31676477
   0.25005246  0.49961955  0.31803949
   0.33453072  0.58358945  0.31651352
   0.41622648  0.66733200  0.31653690
   0.99980834  0.75024202  0.31652965
   0.08291707  0.83376973  0.31632791
   0.16641724  0.91689552  0.31645551
   0.25009445  0.75092164  0.31625873
   0.33353267  0.83333222  0.31653158
   0.41663076  0.91672948  0.31649551
   0.50000000  0.08333333  0.00000000
   0.66666667  0.00000000  0.00000000
   0.58333333  0.16666667  0.00000000
   0.75000000  0.08333333  0.00000000
   0.91666667  0.00000000  0.00000000
   0.83333333  0.16666667  0.00000000
   0.50000000  0.33333333  0.00000000
   0.66666667  0.25000000  0.00000000
   0.58333333  0.41666667  0.00000000
   0.75000000  0.33333333  0.00000000
   0.91666667  0.25000000  0.00000000
   0.83333333  0.41666667  0.00000000
   0.50000000  0.00000000  0.10719781
   0.58333333  0.08333333  0.10719781
   0.66666667  0.16666667  0.10719781
   0.75000000  0.00000000  0.10719781
   0.83333333  0.08333333  0.10719781
   0.91666667  0.16666667  0.10719781
   0.50000000  0.25000000  0.10719781
   0.58333333  0.33333333  0.10719781
   0.66666667  0.41666667  0.10719781
   0.75000000  0.25000000  0.10719781
   0.83333333  0.33333333  0.10719781
   0.91666667  0.41666667  0.10719781
   0.50019787  0.08331195  0.21350948
   0.66658470  0.00005940  0.21350873
   0.58341872  0.16658776  0.21351179
   0.74998771  0.08335518  0.21364749
   0.91662494  0.00008020  0.21350806
   0.83342167  0.16659661  0.21347704
   0.49987902  0.33352670  0.21371910
   0.66671080  0.24989202  0.21357807
   0.58345673  0.41673491  0.21354935
   0.74988897  0.33334917  0.21361006
   0.91669675  0.25001659  0.21349097
   0.83322133  0.41676055  0.21373770
   0.50002286  0.00006424  0.31636723
   0.58340410  0.08327126  0.31652868
   0.66673109  0.16660487  0.31655748
   0.75003398  0.00003621  0.31665497
   0.83327396  0.08333044  0.31649752
   0.91678446  0.16655031  0.31652774
   0.49997678  0.24995039  0.31659371
   0.58350547  0.33337300  0.31644919
   0.66692668  0.41635967  0.31651992
   0.75021768  0.24977050  0.31662232
   0.83335685  0.33332631  0.31656182
   0.91669221  0.41664185  0.31649462
   0.50000000  0.58333333  0.00000000
   0.66666667  0.50000000  0.00000000
   0.58333333  0.66666667  0.00000000
   0.75000000  0.58333333  0.00000000
   0.91666667  0.50000000  0.00000000
   0.83333333  0.66666667  0.00000000
   0.50000000  0.83333333  0.00000000
   0.66666667  0.75000000  0.00000000
   0.58333333  0.91666667  0.00000000
   0.75000000  0.83333333  0.00000000
   0.91666667  0.75000000  0.00000000
   0.83333333  0.91666667  0.00000000
   0.50000000  0.50000000  0.10719781
   0.58333333  0.58333333  0.10719781
   0.66666667  0.66666667  0.10719781
   0.75000000  0.50000000  0.10719781
   0.83333333  0.58333333  0.10719781
   0.91666667  0.66666667  0.10719781
   0.50000000  0.75000000  0.10719781
   0.58333333  0.83333333  0.10719781
   0.66666667  0.91666667  0.10719781
   0.75000000  0.75000000  0.10719781
   0.83333333  0.83333333  0.10719781
   0.91666667  0.91666667  0.10719781
   0.50023350  0.58345784  0.21363055
   0.66665779  0.50004076  0.21371618
   0.58329005  0.66671707  0.21376203
   0.75004601  0.58327675  0.21369547
   0.91651389  0.50000682  0.21346418
   0.83335522  0.66661573  0.21341971
   0.49995916  0.83333037  0.21342874
   0.66665122  0.75005161  0.21364017
   0.58338230  0.91666136  0.21349183
   0.74999792  0.83327815  0.21358979
   0.91655033  0.75016996  0.21347773
   0.83333531  0.91672577  0.21359230
   0.50048020  0.49936662  0.31632741
   0.58352780  0.58320187  0.31730429
   0.66683721  0.66704053  0.31709804
   0.75053225  0.49945473  0.31677024
   0.83364774  0.58320115  0.31646015
   0.91642693  0.66693874  0.31650493
   0.49935151  0.75114206  0.31645482
   0.58306368  0.83389356  0.31630683
   0.66669645  0.91669837  0.31651646
   0.75011762  0.75023885  0.31650876
   0.83325961  0.83341949  0.31655842
   0.91658617  0.91690924  0.31645278
   0.21244528  0.44384630  0.54148596
   0.17888659  0.43701751  0.46057653
   0.21909829  0.53330719  0.41538753
   0.30386411  0.44263831  0.45340570
   0.25853764  0.54969043  0.55814886
   0.36121104  0.55064053  0.43981245
   0.39442696  0.46678163  0.49394355
   0.44815678  0.51527250  0.56650522
   0.40095605  0.65070043  0.46316060
   0.48358244  0.54906726  0.45766797
   0.51965246  0.59316988  0.57930706
   0.56849178  0.61967337  0.43979348
   0.61099830  0.52549613  0.48409683
   0.63271688  0.62243192  0.57666644
   0.73980851  0.48210262  0.53976950
   0.78018240  0.55049175  0.53965909
   0.75162675  0.52332607  0.46309973
   0.10474750  0.59280788  0.54879523
   0.05902824  0.53200393  0.52982871
   0.07211645  0.59014245  0.46552366
   0.14338380  0.66438632  0.48857581
   0.22113754  0.65929018  0.43413598
   0.21575136  0.69186375  0.51794211
   0.30715340  0.69299363  0.56957517
   0.38835972  0.63938612  0.62707101
   0.31015133  0.61310041  0.61982394
   0.44541842  0.74974094  0.49316085
   0.49872724  0.73453506  0.57044671
   0.40181114  0.73913002  0.56878973
   0.66412748  0.67573696  0.43977671
   0.68691124  0.70274833  0.51862986
   0.58235008  0.74158025  0.49395933
   0.18519658  0.47935419  0.49531038
   0.24696540  0.50034738  0.46471069
   0.10058930  0.55270303  0.51077602
   0.26710425  0.55844387  0.50461982
   0.35720431  0.53432680  0.49286425
   0.20800805  0.64849614  0.48636606
   0.40073055  0.56840384  0.53828708
   0.44682756  0.59875722  0.49384700
   0.34793871  0.63213225  0.59132439
   0.50311194  0.62408340  0.52994592
   0.58391635  0.59231068  0.49106858
   0.45990060  0.71717344  0.54155148
   0.64765953  0.61092113  0.52279811
   0.73478923  0.53744449  0.51639753
   0.64434457  0.68752421  0.49305842
 
 position of ions in cartesian coordinates  (Angst):
   0.78291459  1.35604784  0.00000000
   3.13165834  0.00000000  0.00000000
   3.13165834  2.71209568  0.00000000
   5.48040210  1.35604784  0.00000000
   7.82914586  0.00000000  0.00000000
   7.82914586  2.71209568  0.00000000
  21.92160840  5.42419136  0.00000000
   5.48040210  4.06814352  0.00000000
   5.48040210  6.78023920  0.00000000
   7.82914586  5.42419136  0.00000000
  10.17788962  4.06814352  0.00000000
  10.17788962  6.78023920  0.00000000
   0.00000000  0.00000000  2.14395612
   2.34874376  1.35604784  2.14395612
   4.69748752  2.71209568  2.14395612
   4.69748752  0.00000000  2.14395612
   7.04623127  1.35604784  2.14395612
   9.39497503  2.71209568  2.14395612
  21.13869382  4.06814352  2.14395612
   4.69748752  5.42419136  2.14395612
   7.04623127  6.78023920  2.14395612
   7.04623127  4.06814352  2.14395612
   9.39497503  5.42419136  2.14395612
  11.74371879  6.78023920  2.14395612
   0.78522935  1.35807860  4.26903982
   3.13101218  0.00003904  4.27003316
   3.13207613  2.71359522  4.27098893
   5.48021856  1.35524203  4.27161399
   7.83002292  0.00069269  4.26850612
   7.83023333  2.71108950  4.27124292
  21.92090198  5.42527171  4.27119553
   5.48181953  4.06690933  4.27232585
   5.48314912  6.77721440  4.27195659
   7.82849329  5.42386910  4.26712381
  10.17625611  4.06906762  4.27288158
  10.17827996  6.77881873  4.27746704
  18.79023311  0.00425900  6.32801157
   2.34978490  1.35665237  6.32994378
   4.69791796  2.71241235  6.33245890
   4.69728163  0.00292548  6.33267063
   7.04584378  1.35751001  6.32962389
   9.39483697  2.71153410  6.33000949
  21.13808696  4.06760916  6.33248823
   4.69737067  5.42427048  6.33014431
   7.03068421  6.77152842  6.32871376
   7.04629815  4.06923534  6.33411692
   9.39478247  5.40673670  6.32611237
  11.76096378  6.75997189  6.32380385
   5.48040210  9.49233489  0.00000000
   7.82914586  8.13628704  0.00000000
   7.82914586 10.84838273  0.00000000
  10.17788962  9.49233489  0.00000000
  12.52663337  8.13628704  0.00000000
  12.52663337 10.84838273  0.00000000
  26.61909592 13.56047841  0.00000000
  10.17788962 12.20443057  0.00000000
  10.17788962 14.91652625  0.00000000
  12.52663337 13.56047841  0.00000000
  14.87537713 12.20443057  0.00000000
  14.87537713 14.91652625  0.00000000
   4.69748752  8.13628704  2.14395612
   7.04623127  9.49233489  2.14395612
   9.39497503 10.84838273  2.14395612
   9.39497503  8.13628704  2.14395612
  11.74371879  9.49233489  2.14395612
  14.09246255 10.84838273  2.14395612
  25.83618133 12.20443057  2.14395612
   9.39497503 13.56047841  2.14395612
  11.74371879 14.91652625  2.14395612
  11.74371879 12.20443057  2.14395612
  14.09246255 13.56047841  2.14395612
  16.44120630 14.91652625  2.14395612
   5.48363845  9.49573739  4.27546663
   7.82483597  8.13628303  4.27545772
   7.83135018 10.84813950  4.27330210
  10.18155999  9.49448588  4.27666130
  12.52658294  8.13869373  4.26695917
  12.52850292 10.84610496  4.27326012
  26.61718713 13.56405319  4.26673778
  10.17707465 12.20603645  4.27389601
  10.17841650 14.91667584  4.26888652
  12.52527314 13.56004898  4.27149612
  14.87866255 12.20389194  4.27354741
  14.87365038 14.91871646  4.26983497
   4.69647685  8.13356061  6.32600034
   7.01864393  9.50477531  6.32864030
   9.39057950 10.87922891  6.33529538
   9.39238652  8.13009616  6.36078980
  11.76862383  9.49650257  6.33027035
  14.09044231 10.85920940  6.33073808
  25.83485377 12.20836880  6.33059305
   9.39125340 13.56757965  6.32655816
  11.74118216 14.92025031  6.32911028
  11.75415225 12.21942803  6.32517456
  14.09619755 13.56046034  6.33063165
  16.44112179 14.91754843  6.32991020
  10.17788962  1.35604784  0.00000000
  12.52663337  0.00000000  0.00000000
  12.52663337  2.71209568  0.00000000
  14.87537713  1.35604784  0.00000000
  17.22412089  0.00000000  0.00000000
  17.22412089  2.71209568  0.00000000
  12.52663337  5.42419136  0.00000000
  14.87537713  4.06814352  0.00000000
  14.87537713  6.78023920  0.00000000
  17.22412089  5.42419136  0.00000000
  19.57286465  4.06814352  0.00000000
  19.57286465  6.78023920  0.00000000
   9.39497503  0.00000000  2.14395612
  11.74371879  1.35604784  2.14395612
  14.09246255  2.71209568  2.14395612
  14.09246255  0.00000000  2.14395612
  16.44120630  1.35604784  2.14395612
  18.78995006  2.71209568  2.14395612
  11.74371879  4.06814352  2.14395612
  14.09246255  5.42419136  2.14395612
  16.44120630  6.78023920  2.14395612
  16.44120630  4.06814352  2.14395612
  18.78995006  5.42419136  2.14395612
  21.13869382  6.78023920  2.14395612
  10.18140666  1.35569986  4.27018961
  12.52565123  0.00096662  4.27017457
  12.52749646  2.71081171  4.27023585
  14.87535152  1.35640332  4.27294989
  17.22409038  0.00130509  4.27016112
  17.22512246  2.71095560  4.26954078
  12.52617678  5.42733788  4.27438203
  14.87519188  4.06638636  4.27156142
  14.87833695  6.78134972  4.27098702
  17.22218345  5.42444912  4.27220123
  19.57358578  4.06841343  4.26981932
  19.57164222  6.78176699  4.27475399
   9.39600811  0.00104527  6.32734468
  11.74446524  1.35503767  6.33057364
  14.09309237  2.71109004  6.33114961
  14.09344119  0.00058916  6.33309937
  16.44006343  1.35600075  6.32995038
  18.79107022  2.71020226  6.33055487
  11.74281636  4.06733620  6.33187425
  14.09606965  5.42483688  6.32898375
  16.44320766  6.77524360  6.33039832
  16.44314027  4.06440895  6.33244638
  18.79032591  5.42407704  6.33123642
  21.13894052  6.77983531  6.32989243
  14.87537713  9.49233489  0.00000000
  17.22412089  8.13628704  0.00000000
  17.22412089 10.84838273  0.00000000
  19.57286465  9.49233489  0.00000000
  21.92160840  8.13628704  0.00000000
  21.92160840 10.84838273  0.00000000
  17.22412089 13.56047841  0.00000000
  19.57286465 12.20443057  0.00000000
  19.57286465 14.91652625  0.00000000
  21.92160840 13.56047841  0.00000000
  24.27035216 12.20443057  0.00000000
  24.27035216 14.91652625  0.00000000
  14.09246255  8.13628704  2.14395612
  16.44120630  9.49233489  2.14395612
  18.78995006 10.84838273  2.14395612
  18.78995006  8.13628704  2.14395612
  21.13869382  9.49233489  2.14395612
  23.48743758 10.84838273  2.14395612
  16.44120630 12.20443057  2.14395612
  18.78995006 13.56047841  2.14395612
  21.13869382 14.91652625  2.14395612
  21.13869382 12.20443057  2.14395612
  23.48743758 13.56047841  2.14395612
  25.83618133 14.91652625  2.14395612
  14.88093426  9.49436093  4.27261096
  17.22433701  8.13695027  4.27432362
  17.22378119 10.84920290  4.27524053
  19.57319754  9.49141408  4.27390947
  21.91880178  8.13639806  4.26928365
  21.92154111 10.84755383  4.26839427
  17.22332570 13.56043011  4.26857480
  19.57305917 12.20527037  4.27280347
  19.57373479 14.91643986  4.26983661
  21.92105096 13.55958047  4.27179582
  24.26976306 12.20719625  4.26955468
  24.27094463 14.91748803  4.27184607
  14.09553494  8.12598039  6.32654830
  16.44362522  9.49019568  6.34608584
  18.79666694 10.85446640  6.34196087
  18.79482823  8.12741409  6.33540473
  21.14335964  9.49018385  6.32920308
  23.48548915 10.85281007  6.33009859
  16.43975079 12.22301487  6.32909639
  18.79014651 13.56959467  6.32613661
  21.13955129 14.91704211  6.33032918
  21.14314794 12.20831728  6.33017512
  23.48686182 13.56188040  6.33116849
  25.83694772 14.92047353  6.32905563
   8.16176111  7.22252175 10.82971911
   7.46703873  7.11139985  9.21153067
   9.12725375  8.67828077  8.30775054
   9.86816738  7.20286474  9.06811400
  10.02223727  8.94487820 11.16297728
  11.96039132  8.96033879  8.79624905
  11.79666459  7.59573860  9.87887103
  13.26181578  8.38480999 11.33010443
  13.64725838 10.58857099  9.26321197
  14.24496303  8.93473761  9.15335930
  15.33706002  9.65240086 11.58614110
  16.50374791 10.08368082  8.79586967
  16.41765051  8.55117465  9.68193656
  17.73645088 10.12856959 11.53332881
  18.43030710  7.84505055 10.79538997
  19.83144454  8.95791785 10.79318181
  19.03966452  8.51586231  9.26199468
   7.53761554  9.64651016 10.97590463
   6.10730134  8.65707341 10.59657421
   6.89943818  9.60313680  9.31047314
   8.93606737 10.81127558  9.77151610
  10.34917820 10.72834833  8.68271960
  10.55399992 11.25840405 10.35884217
  12.28205494 11.27679017 11.39150343
  13.30427646 10.40445801 12.54142021
  11.58779108  9.97672190 12.39647888
  15.41318736 12.20021499  9.86321702
  16.27199851 11.95277622 11.40893413
  14.49411937 12.02754798 11.37579460
  18.82745395 10.99597972  8.79553419
  19.50933098 11.43552426 10.37259720
  17.90945676 12.06741948  9.87918667
   7.98335511  7.80032662  9.90620768
   9.34121859  8.14193975  9.29421387
   7.08269905  8.99390099 10.21552032
  10.26544166  9.08731922 10.09239643
  11.73183798  8.69487241  9.85728493
  10.00106592 10.55270157  9.72732119
  12.86984699  9.24939361 10.76574164
  14.02117659  9.74332117  9.87693995
  12.47661770 10.28641887 11.82648784
  15.31669614 10.15544339 10.59891845
  16.53650302  9.63841941  9.82137154
  15.37933598 11.67025802 10.83102955
  17.90907905  9.94125930 10.45596225
  18.85593052  8.74560531 10.32795067
  18.56647506 11.18778870  9.86116843
 


--------------------------------------------------------------------------------------------------------


 k-point  1 :   0.0000 0.0000 0.0000  plane waves:  132693
 k-point  2 :   0.3333 0.0000 0.0000  plane waves:  132620
 k-point  3 :   0.0000 0.3333 0.0000  plane waves:  132620
 k-point  4 :   0.3333 0.3333 0.0000  plane waves:  132620
 k-point  5 :  -0.3333 0.3333 0.0000  plane waves:  132456

 maximum and minimum number of plane-waves per node :    132693   132456

 maximum number of plane-waves:    132693
 maximum index in each direction: 
   IXMAX=   32   IYMAX=   32   IZMAX=   34
   IXMIN=  -32   IYMIN=  -32   IZMIN=  -34


 serial   3D FFT for wavefunctions
 parallel 3D FFT for charge:
    minimum data exchange during FFTs selected (reduces bandwidth)


 total amount of memory used by VASP MPI-rank0   414505. kBytes
=======================================================================

   base      :      30000. kBytes
   nonlr-proj:      85139. kBytes
   fftplans  :      11107. kBytes
   grid      :      55284. kBytes
   one-center:       3716. kBytes
   wavefun   :     229259. kBytes
 
     INWAV:  cpu time    0.0000: real time    0.0003
 Broyden mixing: mesh for mixing (old mesh)
   NGX = 65   NGY = 65   NGZ = 69
  (NGX  =196   NGY  =196   NGZ  =216)
  gives a total of 291525 points

 initial charge density was supplied:
 charge density of overlapping atoms calculated
 number of electron    1628.0000000 magnetization 
 keeping initial charge density in first step


--------------------------------------------------------------------------------------------------------


 Maximum index for non-local projection operator         2383
 Maximum index for augmentation-charges         1073 (set IRDMAX)


--------------------------------------------------------------------------------------------------------


 First call to EWALD:  gamma=   0.097
 Maximum number of real-space cells 3x 3x 3
 Maximum number of reciprocal cells 3x 3x 3

    FEWALD:  cpu time    0.0119: real time    0.0119


--------------------------------------- Iteration      1(   1)  ---------------------------------------


    POTLOK:  cpu time    0.1814: real time    0.1955
    SETDIJ:  cpu time    0.0210: real time    0.0279
     EDDAV:  cpu time   73.5611: real time   73.6256
       DOS:  cpu time    0.0019: real time    0.0041
    --------------------------------------------
      LOOP:  cpu time   73.7652: real time   73.8531

 eigenvalue-minimisations  : 10080
 total energy-change (2. order) : 0.9614818E+04  (-0.6653444E+05)
 number of electron    1628.0000000 magnetization 
 augmentation part     1628.0000000 magnetization 

 DIPCOR: dipole corrections for dipol
 direction  3 min pos   155,
 dipolmoment           0.000000      0.000000     -0.344087 electrons x Angstroem
 Tr[quadrupol]   -100396.114440

 energy correction for charged system         0.000000 eV
 dipol+quadrupol energy correction           -0.001824 eV
 added-field ion interaction        -11.645282 eV  (added to PSCEN)


 Free energy of the ion-electron system (eV)
  ---------------------------------------------------
  alpha Z        PSCENC =      3022.64894332
  Ewald energy   TEWEN  =    267937.92425508
  -Hartree energ DENC   =   -364972.23125205
  -exchange      EXHF   =         0.00000000
  -V(xc)+E(xc)   XCENC  =     -5908.84311227
  PAW double counting   =     90527.62511052   -81179.02344425
  entropy T*S    EENTRO =        -0.04827369
  eigenvalues    EBANDS =     10242.98560460
  atomic energy  EATOM  =     89943.77999512
  Solvation  Ediel_sol  =         0.00000000
  ---------------------------------------------------
  free energy    TOTEN  =      9614.81782637 eV

  energy without entropy =     9614.86610006  energy(sigma->0) =     9614.84196321


--------------------------------------------------------------------------------------------------------




--------------------------------------- Iteration      1(   2)  ---------------------------------------


     EDDAV:  cpu time   77.6467: real time   77.6842
       DOS:  cpu time    0.0037: real time    0.0037
    --------------------------------------------
      LOOP:  cpu time   77.6504: real time   77.6879

 eigenvalue-minimisations  : 10704
 total energy-change (2. order) :-0.1072352E+05  (-0.1001630E+05)
 number of electron    1628.0000000 magnetization 
 augmentation part     1628.0000000 magnetization 

 DIPCOR: dipole corrections for dipol
 direction  3 min pos   155,
 dipolmoment           0.000000      0.000000     -0.344087 electrons x Angstroem
 Tr[quadrupol]   -100396.114440

 energy correction for charged system         0.000000 eV
 dipol+quadrupol energy correction           -0.001824 eV
 added-field ion interaction        -11.645282 eV  (added to PSCEN)


 Free energy of the ion-electron system (eV)
  ---------------------------------------------------
  alpha Z        PSCENC =      3022.64894332
  Ewald energy   TEWEN  =    267937.92425508
  -Hartree energ DENC   =   -364972.23125205
  -exchange      EXHF   =         0.00000000
  -V(xc)+E(xc)   XCENC  =     -5908.84311227
  PAW double counting   =     90527.62511052   -81179.02344425
  entropy T*S    EENTRO =        -0.08300437
  eigenvalues    EBANDS =      -480.49882620
  atomic energy  EATOM  =     89943.77999512
  Solvation  Ediel_sol  =         0.00000000
  ---------------------------------------------------
  free energy    TOTEN  =     -1108.70133511 eV

  energy without entropy =    -1108.61833074  energy(sigma->0) =    -1108.65983293


--------------------------------------------------------------------------------------------------------




--------------------------------------- Iteration      1(   3)  ---------------------------------------


     EDDAV:  cpu time  118.1151: real time  118.1679
       DOS:  cpu time    0.0030: real time    0.0030
    --------------------------------------------
      LOOP:  cpu time  118.1181: real time  118.1709

 eigenvalue-minimisations  : 17760
 total energy-change (2. order) :-0.9219760E+03  (-0.8758033E+03)
 number of electron    1628.0000000 magnetization 
 augmentation part     1628.0000000 magnetization 

 DIPCOR: dipole corrections for dipol
 direction  3 min pos   155,
 dipolmoment           0.000000      0.000000     -0.344087 electrons x Angstroem
 Tr[quadrupol]   -100396.114440

 energy correction for charged system         0.000000 eV
 dipol+quadrupol energy correction           -0.001824 eV
 added-field ion interaction        -11.645282 eV  (added to PSCEN)


 Free energy of the ion-electron system (eV)
  ---------------------------------------------------
  alpha Z        PSCENC =      3022.64894332
  Ewald energy   TEWEN  =    267937.92425508
  -Hartree energ DENC   =   -364972.23125205
  -exchange      EXHF   =         0.00000000
  -V(xc)+E(xc)   XCENC  =     -5908.84311227
  PAW double counting   =     90527.62511052   -81179.02344425
  entropy T*S    EENTRO =        -0.08130381
  eigenvalues    EBANDS =     -1402.47650169
  atomic energy  EATOM  =     89943.77999512
  Solvation  Ediel_sol  =         0.00000000
  ---------------------------------------------------
  free energy    TOTEN  =     -2030.67731004 eV

  energy without entropy =    -2030.59600623  energy(sigma->0) =    -2030.63665813


--------------------------------------------------------------------------------------------------------




--------------------------------------- Iteration      1(   4)  ---------------------------------------


     EDDAV:  cpu time   92.7769: real time   92.8141
       DOS:  cpu time    0.0032: real time    0.0032
    --------------------------------------------
      LOOP:  cpu time   92.7801: real time   92.8173

 eigenvalue-minimisations  : 13296
 total energy-change (2. order) :-0.5327843E+02  (-0.5132690E+02)
 number of electron    1628.0000000 magnetization 
 augmentation part     1628.0000000 magnetization 

 DIPCOR: dipole corrections for dipol
 direction  3 min pos   155,
 dipolmoment           0.000000      0.000000     -0.344087 electrons x Angstroem
 Tr[quadrupol]   -100396.114440

 energy correction for charged system         0.000000 eV
 dipol+quadrupol energy correction           -0.001824 eV
 added-field ion interaction        -11.645282 eV  (added to PSCEN)


 Free energy of the ion-electron system (eV)
  ---------------------------------------------------
  alpha Z        PSCENC =      3022.64894332
  Ewald energy   TEWEN  =    267937.92425508
  -Hartree energ DENC   =   -364972.23125205
  -exchange      EXHF   =         0.00000000
  -V(xc)+E(xc)   XCENC  =     -5908.84311227
  PAW double counting   =     90527.62511052   -81179.02344425
  entropy T*S    EENTRO =        -0.09758915
  eigenvalues    EBANDS =     -1455.73864841
  atomic energy  EATOM  =     89943.77999512
  Solvation  Ediel_sol  =         0.00000000
  ---------------------------------------------------
  free energy    TOTEN  =     -2083.95574210 eV

  energy without entropy =    -2083.85815295  energy(sigma->0) =    -2083.90694753


--------------------------------------------------------------------------------------------------------




--------------------------------------- Iteration      1(   5)  ---------------------------------------


     EDDAV:  cpu time  104.8011: real time  105.1153
       DOS:  cpu time    0.0028: real time    0.0028
    --------------------------------------------
      LOOP:  cpu time  104.8039: real time  105.1181

 eigenvalue-minimisations  : 15504
 total energy-change (2. order) :-0.2412863E+01  (-0.2370164E+01)
 number of electron    1628.0000000 magnetization 
 augmentation part     1628.0000000 magnetization 

 DIPCOR: dipole corrections for dipol
 direction  3 min pos   155,
 dipolmoment           0.000000      0.000000     -0.344087 electrons x Angstroem
 Tr[quadrupol]   -100396.114440

 energy correction for charged system         0.000000 eV
 dipol+quadrupol energy correction           -0.001824 eV
 added-field ion interaction        -11.645282 eV  (added to PSCEN)


 Free energy of the ion-electron system (eV)
  ---------------------------------------------------
  alpha Z        PSCENC =      3022.64894332
  Ewald energy   TEWEN  =    267937.92425508
  -Hartree energ DENC   =   -364972.23125205
  -exchange      EXHF   =         0.00000000
  -V(xc)+E(xc)   XCENC  =     -5908.84311227
  PAW double counting   =     90527.62511052   -81179.02344425
  entropy T*S    EENTRO =        -0.09742223
  eigenvalues    EBANDS =     -1458.15167850
  atomic energy  EATOM  =     89943.77999512
  Solvation  Ediel_sol  =         0.00000000
  ---------------------------------------------------
  free energy    TOTEN  =     -2086.36860526 eV

  energy without entropy =    -2086.27118304  energy(sigma->0) =    -2086.31989415


--------------------------------------------------------------------------------------------------------




--------------------------------------- Iteration      1(   6)  ---------------------------------------


     EDDAV:  cpu time  102.7429: real time  102.9377
       DOS:  cpu time    0.0031: real time    0.0031
    --------------------------------------------
      LOOP:  cpu time  102.7460: real time  102.9408

 eigenvalue-minimisations  : 15072
 total energy-change (2. order) :-0.1253760E+00  (-0.1242477E+00)
 number of electron    1628.0000000 magnetization 
 augmentation part     1628.0000000 magnetization 

 DIPCOR: dipole corrections for dipol
 direction  3 min pos   155,
 dipolmoment           0.000000      0.000000     -0.344087 electrons x Angstroem
 Tr[quadrupol]   -100396.114440

 energy correction for charged system         0.000000 eV
 dipol+quadrupol energy correction           -0.001824 eV
 added-field ion interaction        -11.645282 eV  (added to PSCEN)


 Free energy of the ion-electron system (eV)
  ---------------------------------------------------
[...]
  Alpha Z  3034.29605  3034.29605  3034.29605
  Ewald  340152.36988334573.68747************   505.60126   518.45976    -9.23530
  Hartree361383.49046356277.22756************   455.93155   426.95739     4.86496
  E(xc)   -7566.80515 -7567.46501 -7583.10340     0.11216     0.15669     0.00709
  Local  ************************729704.41934  -961.21986  -952.14353     6.77862
  n-local  2071.77752  2070.50744  1824.92712    -0.02064     0.74154    -0.59550
  augment  8674.33547  8673.81897  8680.06407     0.00156     0.03834    -0.02504
  Kinetic 19211.74131 19203.24768 19325.23512    -0.25000     5.65357    -1.98432
  Fock        0.00000     0.00000     0.00000     0.00000     0.00000     0.00000
  vdW       -23.55814   -22.42664   -20.01781    -0.11839    -0.20376     0.07327
  -------------------------------------------------------------------------------------
  Total    -159.84423  -159.83799   -77.33774     0.03765    -0.34000    -0.11622
  in kB     -41.87894   -41.87730   -20.26237     0.00986    -0.08908    -0.03045
  external pressure =      -34.67 kB  Pullay stress =        0.00 kB



--------------------------------------------------------------------------------------------------------



  FREE ENERGIE OF THE ION-ELECTRON SYSTEM (eV)
  ---------------------------------------------------
  free  energy   TOTEN  =     -1948.78469848 eV

  energy  without entropy=    -1948.65429667  energy(sigma->0) =    -1948.71949758
 
 d Force = 0.4551708E-04[ 0.262E-04, 0.648E-04]  d Energy = 0.5924705E-04-0.137E-04
 d Force =-0.1896439E+01[-0.190E+01,-0.190E+01]  d Ewald  =-0.1896439E+01 0.432E-06


--------------------------------------------------------------------------------------------------------


    POTLOK:  cpu time    0.1980: real time    0.2016


--------------------------------------------------------------------------------------------------------




--------------------------------------------------------------------------------------------------------


    WAVPRE:  cpu time    0.1408: real time    0.1420
    FEWALD:  cpu time    0.0100: real time    0.0100
    ORTHCH:  cpu time    8.4709: real time    8.4766
     LOOP+:  cpu time  438.6802: real time  440.6999


--------------------------------------- Iteration    227(   1)  ---------------------------------------


    POTLOK:  cpu time    0.1708: real time    0.1711
    SETDIJ:  cpu time    0.0204: real time    0.0204
     EDDAV:  cpu time   74.9923: real time   75.0595
       DOS:  cpu time    0.0013: real time    0.0013
    CHARGE:  cpu time    3.1060: real time    3.1139
    MIXING:  cpu time    0.0045: real time    0.0045
    --------------------------------------------
      LOOP:  cpu time   78.2954: real time   78.3707

 eigenvalue-minimisations  : 10080
 total energy-change (2. order) :-0.1612578E-03  (-0.2460710E-01)
 number of electron    1627.9999990 magnetization 
 augmentation part      528.8576493 magnetization 

 DIPCOR: dipole corrections for dipol
 direction  3 min pos   155,
 dipolmoment           0.000000      0.000000     -1.099709 electrons x Angstroem
 Tr[quadrupol]   -100395.558775

 energy correction for charged system         0.000000 eV
 dipol+quadrupol energy correction           -0.018632 eV
 added-field ion interaction        -37.782365 eV  (added to PSCEN)


  free energy =  -0.192970055917E+04  energy without entropy=  -0.192957014814E+04


--------------------------------------------------------------------------------------------------------




--------------------------------------- Iteration    227(   2)  ---------------------------------------


    POTLOK:  cpu time    0.1706: real time    0.1712
    SETDIJ:  cpu time    0.0205: real time    0.0205
    EDDIAG:  cpu time   13.6784: real time   13.6868
  RMM-DIIS:  cpu time   35.8592: real time   35.8960
    ORTHCH:  cpu time    4.3515: real time    4.3538
       DOS:  cpu time    0.0011: real time    0.0011
    CHARGE:  cpu time    3.1100: real time    3.1119
    MIXING:  cpu time    0.0046: real time    0.0046
    --------------------------------------------
      LOOP:  cpu time   57.1960: real time   57.2460

 eigenvalue-minimisations  : 10210
 total energy-change (2. order) :-0.3064074E-03  (-0.3147746E-03)
 number of electron    1627.9999990 magnetization 
 augmentation part      528.8576384 magnetization 

 DIPCOR: dipole corrections for dipol
 direction  3 min pos   155,
 dipolmoment           0.000000      0.000000     -1.100856 electrons x Angstroem
 Tr[quadrupol]   -100395.555646

 energy correction for charged system         0.000000 eV
 dipol+quadrupol energy correction           -0.018671 eV
 added-field ion interaction        -37.821769 eV  (added to PSCEN)


 eigenvalues of (default mixing * dielectric matrix)
  average eigenvalue GAMMA=   0.6019
  0.6019

  free energy =  -0.192970086558E+04  energy without entropy=  -0.192957047995E+04


--------------------------------------------------------------------------------------------------------




--------------------------------------- Iteration    227(   3)  ---------------------------------------


    POTLOK:  cpu time    0.1696: real time    0.1709
    SETDIJ:  cpu time    0.0204: real time    0.0204
    EDDIAG:  cpu time   13.6563: real time   13.6684
  RMM-DIIS:  cpu time   38.6748: real time   38.7100
    ORTHCH:  cpu time    4.3252: real time    4.3276
       DOS:  cpu time    0.0011: real time    0.0011
    CHARGE:  cpu time    3.1076: real time    3.1094
    MIXING:  cpu time    0.0048: real time    0.0048
    --------------------------------------------
      LOOP:  cpu time   59.9597: real time   60.0127

 eigenvalue-minimisations  : 11133
 total energy-change (2. order) :-0.1526437E-03  (-0.5786144E-04)
 number of electron    1627.9999990 magnetization 
 augmentation part      528.8590708 magnetization 

 DIPCOR: dipole corrections for dipol
 direction  3 min pos   155,
 dipolmoment           0.000000      0.000000     -1.095716 electrons x Angstroem
 Tr[quadrupol]   -100395.567260

 energy correction for charged system         0.000000 eV
 dipol+quadrupol energy correction           -0.018497 eV
 added-field ion interaction        -37.645162 eV  (added to PSCEN)


 eigenvalues of (default mixing * dielectric matrix)
  average eigenvalue GAMMA=   0.7820
  1.4511  0.1130

  free energy =  -0.192970101822E+04  energy without entropy=  -0.192957049109E+04


--------------------------------------------------------------------------------------------------------




--------------------------------------- Iteration    227(   4)  ---------------------------------------


    POTLOK:  cpu time    0.1691: real time    0.1706
    SETDIJ:  cpu time    0.0204: real time    0.0204
    EDDIAG:  cpu time   13.6517: real time   13.6652
  RMM-DIIS:  cpu time   38.7813: real time   38.8178
    ORTHCH:  cpu time    4.3361: real time    4.3381
       DOS:  cpu time    0.0012: real time    0.0012
    CHARGE:  cpu time    3.1120: real time    3.1141
    MIXING:  cpu time    0.0051: real time    0.0051
    --------------------------------------------
      LOOP:  cpu time   60.0768: real time   60.1325

 eigenvalue-minimisations  : 11138
 total energy-change (2. order) :-0.7235346E-03  (-0.1133602E-03)
 number of electron    1627.9999990 magnetization 
 augmentation part      528.8553283 magnetization 

 DIPCOR: dipole corrections for dipol
 direction  3 min pos   155,
 dipolmoment           0.000000      0.000000     -1.111154 electrons x Angstroem
 Tr[quadrupol]   -100395.537420

 energy correction for charged system         0.000000 eV
 dipol+quadrupol energy correction           -0.019022 eV
 added-field ion interaction        -38.175576 eV  (added to PSCEN)


 eigenvalues of (default mixing * dielectric matrix)
  average eigenvalue GAMMA=   0.6790
  1.8139  0.1478  0.0753

  free energy =  -0.192970174176E+04  energy without entropy=  -0.192957166001E+04


--------------------------------------------------------------------------------------------------------




--------------------------------------- Iteration    227(   5)  ---------------------------------------


    POTLOK:  cpu time    0.1694: real time    0.1708
    SETDIJ:  cpu time    0.0204: real time    0.0204
    EDDIAG:  cpu time   13.6589: real time   13.6720
  RMM-DIIS:  cpu time   37.9004: real time   37.9404
    ORTHCH:  cpu time    4.3411: real time    4.3436
       DOS:  cpu time    0.0012: real time    0.0012
    CHARGE:  cpu time    3.1058: real time    3.1075
    MIXING:  cpu time    0.0053: real time    0.0053
    --------------------------------------------
      LOOP:  cpu time   59.2026: real time   59.2612

 eigenvalue-minimisations  : 10959
 total energy-change (2. order) : 0.8960468E-03  (-0.6681805E-04)
 number of electron    1627.9999990 magnetization 
 augmentation part      528.8584706 magnetization 

 DIPCOR: dipole corrections for dipol
 direction  3 min pos   155,
 dipolmoment           0.000000      0.000000     -1.097763 electrons x Angstroem
 Tr[quadrupol]   -100395.567426

 energy correction for charged system         0.000000 eV
 dipol+quadrupol energy correction           -0.018566 eV
 added-field ion interaction        -37.715514 eV  (added to PSCEN)


 eigenvalues of (default mixing * dielectric matrix)
  average eigenvalue GAMMA=   0.6673
  2.1428  0.3383  0.1240  0.0643

  free energy =  -0.192970084571E+04  energy without entropy=  -0.192957034937E+04


--------------------------------------------------------------------------------------------------------




--------------------------------------- Iteration    227(   6)  ---------------------------------------


    POTLOK:  cpu time    0.1696: real time    0.1703
    SETDIJ:  cpu time    0.0204: real time    0.0204
    EDDIAG:  cpu time   13.6618: real time   13.6766
  RMM-DIIS:  cpu time   36.3747: real time   36.4096
    ORTHCH:  cpu time    4.4629: real time    4.4655
       DOS:  cpu time    0.0012: real time    0.0012
    CHARGE:  cpu time    3.0998: real time    3.1025
    MIXING:  cpu time    0.0056: real time    0.0056
    --------------------------------------------
      LOOP:  cpu time   57.7960: real time   57.8516

 eigenvalue-minimisations  : 10625
 total energy-change (2. order) : 0.1180751E-03  (-0.3715211E-04)
 number of electron    1627.9999990 magnetization 
 augmentation part      528.8578725 magnetization 

 DIPCOR: dipole corrections for dipol
 direction  3 min pos   155,
 dipolmoment           0.000000      0.000000     -1.100305 electrons x Angstroem
 Tr[quadrupol]   -100395.561955

 energy correction for charged system         0.000000 eV
 dipol+quadrupol energy correction           -0.018652 eV
 added-field ion interaction        -37.802828 eV  (added to PSCEN)


 eigenvalues of (default mixing * dielectric matrix)
  average eigenvalue GAMMA=   0.7044
  2.3363  0.7768  0.2247  0.1203  0.0640

  free energy =  -0.192970072764E+04  energy without entropy=  -0.192957033483E+04


--------------------------------------------------------------------------------------------------------




--------------------------------------- Iteration    227(   7)  ---------------------------------------


    POTLOK:  cpu time    0.1692: real time    0.1695
    SETDIJ:  cpu time    0.0203: real time    0.0203
    EDDIAG:  cpu time   13.6705: real time   13.6851
  RMM-DIIS:  cpu time   37.4986: real time   37.5486
    ORTHCH:  cpu time    4.4698: real time    4.4721
       DOS:  cpu time    0.0012: real time    0.0012
    CHARGE:  cpu time    3.1150: real time    3.1177
    MIXING:  cpu time    0.0060: real time    0.0060
    --------------------------------------------
      LOOP:  cpu time   58.9505: real time   59.0204

 eigenvalue-minimisations  : 10887
 total energy-change (2. order) :-0.1156889E-04  (-0.1426309E-04)
 number of electron    1627.9999990 magnetization 
 augmentation part      528.8579002 magnetization 

 DIPCOR: dipole corrections for dipol
 direction  3 min pos   155,
 dipolmoment           0.000000      0.000000     -1.100081 electrons x Angstroem
 Tr[quadrupol]   -100395.563308

 energy correction for charged system         0.000000 eV
 dipol+quadrupol energy correction           -0.018645 eV
 added-field ion interaction        -37.795136 eV  (added to PSCEN)


 eigenvalues of (default mixing * dielectric matrix)
  average eigenvalue GAMMA=   0.6526
  2.3705  0.9193  0.0640  0.2506  0.1201  0.1908

  free energy =  -0.192970073921E+04  energy without entropy=  -0.192957031737E+04


--------------------------------------------------------------------------------------------------------




--------------------------------------- Iteration    227(   8)  ---------------------------------------


    POTLOK:  cpu time    0.1702: real time    0.1706
    SETDIJ:  cpu time    0.0204: real time    0.0204
    EDDIAG:  cpu time   13.6863: real time   13.7001
  RMM-DIIS:  cpu time   24.0620: real time   24.1194
    ORTHCH:  cpu time    4.3560: real time    4.3585
       DOS:  cpu time    0.0012: real time    0.0012
    CHARGE:  cpu time    3.1271: real time    3.1295
    MIXING:  cpu time    0.0062: real time    0.0062
    --------------------------------------------
      LOOP:  cpu time   45.4294: real time   45.5058

 eigenvalue-minimisations  :  6857
 total energy-change (2. order) : 0.3298005E-04  (-0.3280141E-05)
 number of electron    1627.9999990 magnetization 
 augmentation part      528.8579147 magnetization 

 DIPCOR: dipole corrections for dipol
 direction  3 min pos   155,
 dipolmoment           0.000000      0.000000     -1.100115 electrons x Angstroem
 Tr[quadrupol]   -100395.563127

 energy correction for charged system         0.000000 eV
 dipol+quadrupol energy correction           -0.018646 eV
 added-field ion interaction        -37.796295 eV  (added to PSCEN)


 eigenvalues of (default mixing * dielectric matrix)
  average eigenvalue GAMMA=   0.5984
  2.3726  0.9324  0.2681  0.2681  0.0640  0.1201  0.1634

  free energy =  -0.192970070623E+04  energy without entropy=  -0.192957028709E+04


--------------------------------------------------------------------------------------------------------




--------------------------------------- Iteration    227(   9)  ---------------------------------------


    POTLOK:  cpu time    0.1751: real time    0.1756
    SETDIJ:  cpu time    0.0204: real time    0.0204
    EDDIAG:  cpu time   13.8138: real time   13.8624
  RMM-DIIS:  cpu time   20.2672: real time   20.2867
    ORTHCH:  cpu time    4.4636: real time    4.4690
       DOS:  cpu time    0.0012: real time    0.0012
    --------------------------------------------
      LOOP:  cpu time   38.7412: real time   38.8151

 eigenvalue-minimisations  :  5719
 total energy-change (2. order) : 0.4962276E-05  (-0.9655273E-06)
 number of electron    1627.9999990 magnetization 
 augmentation part      528.8579147 magnetization 

 DIPCOR: dipole corrections for dipol
 direction  3 min pos   155,
 dipolmoment           0.000000      0.000000     -1.100123 electrons x Angstroem
 Tr[quadrupol]   -100395.562889

 energy correction for charged system         0.000000 eV
 dipol+quadrupol energy correction           -0.018646 eV
 added-field ion interaction        -37.796601 eV  (added to PSCEN)


  free energy =  -0.192970070126E+04  energy without entropy=  -0.192957028939E+04


--------------------------------------------------------------------------------------------------------




------------------------ aborting loop because EDIFF is reached ----------------------------------------


    CHARGE:  cpu time    3.1155: real time    3.1177
    FORLOC:  cpu time    0.1760: real time    0.1760
    FORNL :  cpu time   12.6378: real time   12.6451
    STRESS:  cpu time   37.5960: real time   37.6275
    FORCOR:  cpu time    0.2783: real time    0.2783
    FORHAR:  cpu time    0.2035: real time    0.2038
    MIXING:  cpu time    0.0063: real time    0.0063
    OFIELD:  cpu time    0.0001: real time    0.0001

  Number of pair interactions contributing to vdW energy: 1243467
  Edisp (eV):  -19.08471
    FORVDW:  cpu time    0.1696: real time    0.1696

  FORCE on cell =-STRESS in cart. coord.  units (eV):
  Direction    XX          YY          ZZ          XY          YZ          ZX
  --------------------------------------------------------------------------------------
  Alpha Z  3034.29605  3034.29605  3034.29605
  Ewald  340156.98970334579.46504************   505.19107   517.86410   -10.06194
  Hartree361388.17607356283.82754************   455.61630   426.38595     4.11610
  E(xc)   -7566.80571 -7567.46631 -7583.10042     0.11214     0.15613     0.00660
  Local  ************************729715.86265  -960.53417  -950.96399     8.35834
  n-local  2071.74609  2070.46600  1824.89137    -0.03345     0.73743    -0.58935
  augment  8674.34265  8673.81558  8680.07213     0.00550     0.03619    -0.02231
  Kinetic 19211.79371 19203.26847 19325.22043    -0.22249     5.67371    -1.96350
  Fock        0.00000     0.00000     0.00000     0.00000     0.00000     0.00000
  vdW       -23.55963   -22.42801   -20.01846    -0.11900    -0.20405     0.07360
  -------------------------------------------------------------------------------------
  Total    -159.84767  -159.84798   -77.31399     0.01592    -0.31453    -0.08246
  in kB     -41.87984   -41.87992   -20.25615     0.00417    -0.08241    -0.02161
  external pressure =      -34.67 kB  Pullay stress =        0.00 kB



--------------------------------------------------------------------------------------------------------



  FREE ENERGIE OF THE ION-ELECTRON SYSTEM (eV)
  ---------------------------------------------------
  free  energy   TOTEN  =     -1948.78541176 eV

  energy  without entropy=    -1948.65499988  energy(sigma->0) =    -1948.72020582
 
 d Force = 0.6848817E-03[ 0.366E-03, 0.100E-02]  d Energy = 0.7132717E-03-0.284E-04
 d Force =-0.5280577E+01[-0.528E+01,-0.528E+01]  d Ewald  =-0.5280577E+01 0.427E-07


--------------------------------------------------------------------------------------------------------


    POTLOK:  cpu time    0.2026: real time    0.2026


--------------------------------------------------------------------------------------------------------


 Conjugate gradient step on ions:
 trial-energy change:   -0.000713  1 .order   -0.000685   -0.001004   -0.000366
  (g-gl).g = 0.367E-03      g.g   = 0.422E-03  gl.gl    = 0.596E-03
 g(Force)  = 0.422E-03   g(Stress)= 0.000E+00 ortho     = 0.562E-04
 gamma     =   0.61498
 trial     =   2.19622
 opt step  =   3.45821  (harmonic =   3.45821) maximal distance =0.00375684
 next E    = -1948.785489   (d E  =  -0.00079)


--------------------------------------------------------------------------------------------------------


  
 reached required accuracy - stopping structural energy minimisation
     LOOP+:  cpu time  570.1399: real time  570.7512
    4ORBIT:  cpu time    0.0000: real time    0.0000

 total amount of memory used by VASP MPI-rank0   414505. kBytes
=======================================================================

   base      :      30000. kBytes
   nonlr-proj:      85139. kBytes
   fftplans  :      11107. kBytes
   grid      :      55284. kBytes
   one-center:       3716. kBytes
   wavefun   :     229259. kBytes
 
  
  
 General timing and accounting informations for this job:
 ========================================================
  
                  Total CPU time used (sec):   131125.703
                            User time (sec):   130578.472
                          System time (sec):      547.228
                         Elapsed time (sec):   131274.313
  
                   Maximum memory used (kb):      882564.
                   Average memory used (kb):           0.
  
                          Minor page faults:     52969990
                          Major page faults:            0
                 Voluntary context switches:        23441
