 vasp.5.4.4.18Apr17-6-g9f103f2a35 (build Jun 30 2017 19:19:18) complex          
  
 executed on         MareNostrum4 date 2022.06.21  21:18:09
 running on   48 total cores
 distrk:  each k-point on   48 cores,    1 groups
 distr:  one band on NCORES_PER_BAND=   4 cores,   12 groups


--------------------------------------------------------------------------------------------------------


 INCAR:
 POTCAR:    PAW_PBE Au 04Oct2007                  
 POTCAR:    PAW_PBE O 08Apr2002                   
 POTCAR:    PAW_PBE C 08Apr2002                   
 POTCAR:    PAW_PBE N 08Apr2002                   
 POTCAR:    PAW_PBE H 15Jun2001                   
 POTCAR:    PAW_PBE Au 04Oct2007                  
  local pseudopotential read in
  partial core-charges read in
  partial kinetic energy density read in
  atomic valenz-charges read in
  non local Contribution for L=           2  read in
    real space projection operators read in
  non local Contribution for L=           2  read in
    real space projection operators read in
  non local Contribution for L=           0  read in
    real space projection operators read in
  non local Contribution for L=           0  read in
    real space projection operators read in
  non local Contribution for L=           1  read in
    real space projection operators read in
  non local Contribution for L=           1  read in
    real space projection operators read in
    PAW grid and wavefunctions read in
 
   number of l-projection  operators is LMAX  =           6
   number of lm-projection operators is LMMAX =          18
 
 POTCAR:    PAW_PBE O 08Apr2002                   
  local pseudopotential read in
  partial core-charges read in
  partial kinetic energy density read in
  kinetic energy density of atom read in
  atomic valenz-charges read in
  non local Contribution for L=           0  read in
    real space projection operators read in
  non local Contribution for L=           0  read in
    real space projection operators read in
  non local Contribution for L=           1  read in
    real space projection operators read in
  non local Contribution for L=           1  read in
    real space projection operators read in
    PAW grid and wavefunctions read in
 
   number of l-projection  operators is LMAX  =           4
   number of lm-projection operators is LMMAX =           8
 
 POTCAR:    PAW_PBE C 08Apr2002                   
  local pseudopotential read in
  partial core-charges read in
  partial kinetic energy density read in
  atomic valenz-charges read in
  non local Contribution for L=           0  read in
    real space projection operators read in
  non local Contribution for L=           0  read in
    real space projection operators read in
  non local Contribution for L=           1  read in
    real space projection operators read in
  non local Contribution for L=           1  read in
    real space projection operators read in
    PAW grid and wavefunctions read in
 
   number of l-projection  operators is LMAX  =           4
   number of lm-projection operators is LMMAX =           8
 
 POTCAR:    PAW_PBE N 08Apr2002                   
  local pseudopotential read in
  partial core-charges read in
  partial kinetic energy density read in
  atomic valenz-charges read in
  non local Contribution for L=           0  read in
    real space projection operators read in
  non local Contribution for L=           0  read in
    real space projection operators read in
  non local Contribution for L=           1  read in
    real space projection operators read in
  non local Contribution for L=           1  read in
    real space projection operators read in
    PAW grid and wavefunctions read in
 
   number of l-projection  operators is LMAX  =           4
   number of lm-projection operators is LMMAX =           8
 
 POTCAR:    PAW_PBE H 15Jun2001                   
  local pseudopotential read in
  atomic valenz-charges read in
  non local Contribution for L=           0  read in
    real space projection operators read in
  non local Contribution for L=           0  read in
    real space projection operators read in
  non local Contribution for L=           1  read in
    real space projection operators read in
    PAW grid and wavefunctions read in
 
   number of l-projection  operators is LMAX  =           3
   number of lm-projection operators is LMMAX =           5
 
 Optimization of the real space projectors (new method)

 maximal supplied QI-value         = 15.12
 optimisation between [QCUT,QGAM] = [ 10.73, 21.62] = [ 32.26,130.87] Ry 
 Optimized for a Real-space Cutoff    1.42 Angstroem

   l    n(q)    QCUT    max X(q) W(low)/X(q) W(high)/X(q)  e(spline) 
   2      8    10.734    60.898    0.15E-03    0.34E-03    0.26E-06
   2      8    10.734    58.894    0.16E-03    0.35E-03    0.27E-06
   0      9    10.734   109.617    0.92E-04    0.16E-03    0.12E-06
   0      9    10.734    75.026    0.89E-04    0.15E-03    0.11E-06
   1      9    10.734    16.344    0.25E-03    0.88E-04    0.14E-06
   1      9    10.734    10.160    0.20E-03    0.77E-04    0.11E-06
 Optimization of the real space projectors (new method)

 maximal supplied QI-value         = 24.76
 optimisation between [QCUT,QGAM] = [ 10.64, 21.54] = [ 31.73,129.89] Ry 
 Optimized for a Real-space Cutoff    1.23 Angstroem

   l    n(q)    QCUT    max X(q) W(low)/X(q) W(high)/X(q)  e(spline) 
   0      8    10.645    20.381    0.38E-03    0.60E-03    0.15E-06
   0      8    10.645    15.268    0.40E-03    0.65E-03    0.17E-06
   1      7    10.645     5.964    0.30E-03    0.63E-03    0.18E-06
   1      7    10.645     5.382    0.24E-03    0.53E-03    0.16E-06
 Optimization of the real space projectors (new method)

 maximal supplied QI-value         = 25.13
 optimisation between [QCUT,QGAM] = [ 10.81, 21.61] = [ 32.71,130.83] Ry 
 Optimized for a Real-space Cutoff    1.23 Angstroem

   l    n(q)    QCUT    max X(q) W(low)/X(q) W(high)/X(q)  e(spline) 
   0      8    10.807   115.676    0.36E-03    0.72E-03    0.24E-06
   0      8    10.807    87.132    0.35E-03    0.71E-03    0.24E-06
   1      7    10.807     4.429    0.19E-03    0.39E-03    0.11E-06
   1      7    10.807     2.733    0.14E-03    0.28E-03    0.13E-06
 Optimization of the real space projectors (new method)

 maximal supplied QI-value         = 25.13
 optimisation between [QCUT,QGAM] = [ 10.81, 21.61] = [ 32.71,130.83] Ry 
 Optimized for a Real-space Cutoff    1.23 Angstroem

   l    n(q)    QCUT    max X(q) W(low)/X(q) W(high)/X(q)  e(spline) 
   0      8    10.807    79.467    0.34E-03    0.68E-03    0.21E-06
   0      8    10.807    66.151    0.34E-03    0.67E-03    0.21E-06
   1      7    10.807    14.030    0.45E-03    0.13E-02    0.11E-05
   1      7    10.807     9.831    0.48E-03    0.13E-02    0.11E-05
 Optimization of the real space projectors (new method)

 maximal supplied QI-value         = 34.20
 optimisation between [QCUT,QGAM] = [ 10.60, 21.55] = [ 31.48,130.03] Ry 
 Optimized for a Real-space Cutoff    1.23 Angstroem

   l    n(q)    QCUT    max X(q) W(low)/X(q) W(high)/X(q)  e(spline) 
   0      8    10.603    19.460    0.37E-03    0.59E-03    0.23E-06
   0      8    10.603    12.209    0.35E-03    0.56E-03    0.22E-06
   1      7    10.603     4.655    0.70E-04    0.28E-03    0.29E-06
  PAW_PBE Au 04Oct2007                  :
 energy of atom  1       EATOM= -926.0867
 kinetic energy error for atom=    0.0057 (will be added to EATOM!!)
  PAW_PBE O 08Apr2002                   :
 energy of atom  2       EATOM= -432.3788
 kinetic energy error for atom=    0.0389 (will be added to EATOM!!)
  PAW_PBE C 08Apr2002                   :
 energy of atom  3       EATOM= -147.1560
 kinetic energy error for atom=    0.0116 (will be added to EATOM!!)
  PAW_PBE N 08Apr2002                   :
 energy of atom  4       EATOM= -264.5486
 kinetic energy error for atom=    0.0253 (will be added to EATOM!!)
  PAW_PBE H 15Jun2001                   :
 energy of atom  5       EATOM=  -12.4884
 kinetic energy error for atom=    0.0045 (will be added to EATOM!!)
 
 
 POSCAR: Au  O  C  N  H                          
  positions in direct lattice
  velocities in cartesian coordinates
 exchange correlation table for  LEXCH =        8
   RHO(1)=    0.500       N(1)  =     2000
   RHO(2)=  100.500       N(2)  =     4000
 


--------------------------------------------------------------------------------------------------------


 ion  position               nearest neighbor table
   1  0.000  0.000  0.000- 102 2.94  57 2.94  13 2.94 101 2.94   2 2.94 156 2.94  56 2.94  68 2.94
                           114 2.94
   2  0.083  0.083  0.000-   3 2.94   7 2.94   4 2.94 102 2.94  14 2.94  15 2.94   1 2.94  57 2.94
                            13 2.94
   3  0.167  0.167  0.000-   2 2.94   4 2.94   7 2.94  15 2.94   5 2.94  19 2.94  10 2.94   8 2.94
                            17 2.94
   4  0.250  0.000  0.000-   3 2.94   2 2.94  15 2.94  71 2.94  57 2.94  60 2.94   5 2.94  59 2.94
                            16 2.94
   5  0.333  0.083  0.000-  10 2.94  17 2.94   3 2.94   6 2.94  18 2.94  16 2.94   4 2.94  97 2.94
                            60 2.94
   6  0.417  0.167  0.000-  98 2.94  97 2.94 103 2.94   5 2.94  18 2.94 110 2.94  10 2.94  11 2.94
                            22 2.94
   7  0.000  0.250  0.000-   2 2.94   3 2.94   8 2.94  19 2.94 102 2.94 107 2.94 108 2.94  14 2.94
                           120 2.94
   8  0.083  0.333  0.000-  49 2.94   7 2.94  20 2.94  19 2.94  10 2.94   9 2.94 108 2.94   3 2.94
                            21 2.94
   9  0.167  0.417  0.000-  50 2.94  61 2.94  52 2.94  49 2.94  23 2.94  21 2.94   8 2.94  11 2.94
                            10 2.94
  10  0.250  0.250  0.000-   5 2.94  22 2.94  17 2.94  21 2.94   3 2.94   6 2.94   8 2.94  11 2.94
                             9 2.94
  11  0.333  0.333  0.000-  52 2.94  12 2.94 103 2.94  24 2.94   9 2.94  10 2.94   6 2.94  23 2.94
                            22 2.94
  12  0.417  0.417  0.000-  52 2.94  53 2.94  11 2.94  64 2.94 145 2.94  24 2.94 104 2.94 103 2.94
                           116 2.94
  13  0.083  0.000  0.120-  81 2.90  25 2.91  26 2.91  14 2.94   1 2.94  57 2.94  68 2.94 114 2.94
                            15 2.94  71 2.94  69 2.94   2 2.94
  14  0.000  0.167  0.120- 131 2.90  27 2.91  25 2.91  13 2.94 114 2.94  15 2.94   2 2.94 102 2.94
                           118 2.94  19 2.94 120 2.94   7 2.94
  15  0.167  0.083  0.120-  26 2.91  27 2.91  28 2.91  19 2.94   3 2.94  14 2.94  17 2.94   2 2.94
                             4 2.94  16 2.94  13 2.94  71 2.94
  16  0.333  0.000  0.120-  84 2.90  29 2.91  28 2.91  17 2.94  18 2.94 164 2.94   5 2.94  60 2.94
                            15 2.94  71 2.94  72 2.94   4 2.94
  17  0.250  0.167  0.120-  28 2.91  32 2.91  30 2.91  18 2.94  16 2.94  22 2.94   5 2.94  15 2.94
                            10 2.94  19 2.94  21 2.94   3 2.94
  18  0.417  0.083  0.120-  29 2.91 121 2.91  30 2.91  17 2.94  22 2.94  16 2.94 110 2.94   6 2.94
                             5 2.94 109 2.94 164 2.94  97 2.94
  19  0.083  0.250  0.120-  27 2.91  31 2.91  32 2.91  15 2.94   7 2.94   3 2.94   8 2.94  17 2.94
                            14 2.94 120 2.94  21 2.94  20 2.94
  20  1.000  0.417  0.120- 173 2.91  31 2.91  33 2.91 162 2.94  49 2.94  61 2.94 160 2.94   8 2.94
                           120 2.94  21 2.94  19 2.94 108 2.94
  21  0.167  0.333  0.120-  33 2.90  32 2.91  34 2.91  61 2.94  22 2.94  23 2.94   9 2.94  10 2.94
                            20 2.94  19 2.94  17 2.94   8 2.94
  22  0.333  0.250  0.120-  34 2.90  30 2.91  35 2.91  18 2.94  21 2.94  17 2.94  10 2.94 110 2.94
                            24 2.94  23 2.94   6 2.94  11 2.94
  23  0.250  0.417  0.120-  36 2.90  74 2.90  34 2.91  61 2.94  63 2.94  21 2.94  64 2.94  52 2.94
                             9 2.94  24 2.94  22 2.94  11 2.94
  24  0.417  0.333  0.120-  36 2.89 127 2.90  35 2.91  64 2.94  11 2.94  12 2.94 103 2.94 115 2.94
                           116 2.94  23 2.94  22 2.94 110 2.94
  25  0.000  0.083  0.238-  13 2.91 114 2.91  14 2.91 126 2.93  26 2.93  81 2.94 131 2.94 125 2.94
                            27 2.94  37 2.94  38 2.94 138 2.95
  26  0.167  0.000  0.238-  15 2.91  13 2.91  71 2.91  82 2.93  25 2.93  27 2.94  81 2.94  28 2.94
                            84 2.94  38 2.94  40 2.95  93 2.95
  27  0.083  0.167  0.238-  19 2.91  15 2.91  14 2.91 131 2.93  26 2.94  28 2.94  31 2.94  32 2.94
                            25 2.94  38 2.94  39 2.94  43 2.95
  28  0.250  0.083  0.238-  17 2.91  15 2.91  16 2.91  84 2.94  29 2.94  30 2.94  26 2.94  27 2.94
                            32 2.94  39 2.94  41 2.95  40 2.95
  29  0.417  0.000  0.238-  18 2.91  16 2.91 164 2.91 175 2.94  84 2.94  28 2.94 121 2.94  30 2.94
                           177 2.94 133 2.94  41 2.95  96 2.95
  30  0.333  0.167  0.238-  22 2.91  17 2.91  18 2.91  34 2.93  35 2.94  32 2.94 121 2.94  28 2.94
                            29 2.94  41 2.95  46 2.95  42 2.95
  31  0.000  0.333  0.238-  20 2.91  19 2.91 120 2.91 132 2.93 173 2.94  33 2.94  32 2.94 131 2.94
                            27 2.94 144 2.95  44 2.95  43 2.95
  32  0.167  0.250  0.238-  21 2.91  17 2.91  19 2.91  33 2.94  34 2.94  30 2.94  31 2.94  28 2.94
                            27 2.94  39 2.95  44 2.95  46 2.95
  33  0.084  0.417  0.238-  21 2.90  61 2.91  20 2.91  32 2.94  74 2.94  85 2.94  31 2.94 173 2.94
                            34 2.94  73 2.95  44 2.95  45 2.95
  34  0.250  0.333  0.238-  22 2.90  21 2.91  23 2.91  30 2.93  36 2.93  35 2.93  74 2.94  32 2.94
                            33 2.94  45 2.95  46 2.95  47 2.96
  35  0.417  0.250  0.238-  22 2.91 110 2.91  24 2.91  36 2.93 127 2.93  34 2.93 121 2.93  30 2.94
                           123 2.94  42 2.95  47 2.96 139 2.96
  36  0.334  0.416  0.238-  24 2.89  23 2.90  64 2.91  35 2.93  88 2.93  34 2.93 127 2.93  74 2.94
                            77 2.94  48 2.95  76 2.95  47 2.97
  37  1.000  0.000  0.358-  92 2.93 138 2.94 137 2.94  38 2.94 192 2.94  93 2.94  25 2.94 125 2.94
                            81 2.95
  38  0.083  0.083  0.358-  43 2.94 138 2.94  93 2.94  37 2.94  39 2.94  40 2.94  26 2.94  25 2.94
                            27 2.94
  39  0.167  0.167  0.358-  43 2.93  40 2.94  46 2.94  44 2.94  41 2.94  38 2.94  28 2.94  27 2.94
                            32 2.95
  40  0.250  0.000  0.358-  95 2.93  39 2.94  41 2.94  93 2.94  96 2.94  38 2.94  28 2.95  84 2.95
                            26 2.95
  41  0.333  0.083  0.358-  46 2.94  40 2.94  42 2.94  96 2.94  39 2.94 133 2.94  30 2.95  28 2.95
                            29 2.95
  42  0.417  0.167  0.359-  47 2.93 133 2.94 134 2.94 139 2.94  41 2.94  46 2.94 121 2.95  35 2.95
                            30 2.95
  43  0.000  0.250  0.359- 143 2.92  39 2.93  38 2.94  44 2.94 144 2.94 138 2.94  27 2.95  31 2.95
                           131 2.95
  44  0.084  0.333  0.359- 144 2.93  45 2.93  46 2.94  43 2.94  39 2.94  85 2.94  32 2.95  33 2.95
                            31 2.95
  45  0.167  0.416  0.359-  46 2.93  88 2.93  44 2.93  47 2.94  85 2.94  34 2.95  86 2.95  33 2.95
                            74 2.96
  46  0.250  0.250  0.359-  45 2.93  47 2.93  44 2.94  41 2.94  39 2.94  42 2.94  30 2.95  32 2.95
                            34 2.95
  47  0.334  0.332  0.360-  88 2.92  42 2.93  46 2.93 139 2.93  45 2.94  48 2.94  35 2.96  34 2.96
                            36 2.97
  48  0.417  0.416  0.358-  88 2.92 139 2.93 140 2.93  89 2.94  47 2.94  36 2.95 127 2.95  77 2.96
                           181 2.98
  49  1.000  0.500  0.000-   8 2.94  20 2.94   9 2.94 108 2.94  50 2.94 149 2.94 150 2.94 162 2.94
                            61 2.94
  50  0.083  0.583  0.000-   9 2.94  63 2.94  61 2.94  62 2.94  51 2.94  52 2.94  49 2.94 150 2.94
                            55 2.94
  51  0.167  0.667  0.000-  56 2.94  53 2.94  58 2.94  65 2.94  50 2.94  55 2.94  52 2.94  63 2.94
                            67 2.94
  52  0.250  0.500  0.000-  12 2.94  11 2.94  53 2.94   9 2.94  23 2.94  64 2.94  50 2.94  51 2.94
                            63 2.94
  53  0.333  0.583  0.000-  12 2.94  52 2.94  51 2.94  64 2.94  65 2.94  54 2.94 145 2.94  58 2.94
                            66 2.94
  54  0.417  0.667  0.000-  59 2.94 158 2.94  66 2.94  70 2.94  53 2.94 146 2.94 151 2.94  58 2.94
                           145 2.94
  55  1.000  0.750  0.000- 156 2.94 155 2.94  56 2.94 168 2.94  67 2.94  62 2.94 150 2.94  51 2.94
                            50 2.94
  56  0.083  0.833  0.000-  58 2.94  51 2.94  57 2.94  55 2.94  67 2.94  69 2.94 156 2.94   1 2.94
                            68 2.94
  57  0.167  0.917  0.000-  58 2.94  56 2.94   1 2.94  69 2.94  13 2.94   4 2.94  59 2.94   2 2.94
                            71 2.94
  58  0.250  0.750  0.000-  56 2.94  57 2.94  51 2.94  69 2.94  59 2.94  65 2.94  54 2.94  53 2.94
                            70 2.94
  59  0.333  0.833  0.000-  54 2.94  70 2.94 151 2.94  58 2.94  72 2.94  71 2.94  60 2.94  57 2.94
                             4 2.94
  60  0.417  0.917  0.000- 151 2.94 164 2.94  16 2.94  59 2.94   4 2.94 152 2.94  97 2.94   5 2.94
                            72 2.94
  61  0.083  0.500  0.120-  73 2.90  33 2.91  74 2.91  23 2.94  21 2.94  63 2.94   9 2.94  20 2.94
                            50 2.94  62 2.94  49 2.94 162 2.94
  62  0.000  0.667  0.120-  73 2.90 179 2.90  75 2.92 168 2.94  63 2.94  67 2.94  50 2.94  55 2.94
                            61 2.94 150 2.94 162 2.94 166 2.94
  63  0.167  0.583  0.120-  76 2.91  74 2.91  75 2.91  23 2.94  61 2.94  62 2.94  50 2.94  65 2.94
                            64 2.94  67 2.94  51 2.94  52 2.94
  64  0.333  0.500  0.120-  77 2.89  36 2.91  76 2.92  24 2.94  12 2.94  23 2.94 116 2.94  52 2.94
                            53 2.94  66 2.94  63 2.94  65 2.94
  65  0.250  0.667  0.120-  78 2.91  80 2.91  76 2.91  69 2.94  51 2.94  53 2.94  58 2.94  66 2.94
                            67 2.94  63 2.94  70 2.94  64 2.94
  66  0.417  0.583  0.120-  77 2.90  78 2.90 169 2.91 116 2.94 158 2.94 157 2.94 145 2.94  54 2.94
                            65 2.94  64 2.94  70 2.94  53 2.94
  67  0.083  0.750  0.120-  75 2.90  79 2.91  80 2.92  68 2.94  62 2.94  69 2.94 168 2.94  56 2.94
                            55 2.94  65 2.94  63 2.94  51 2.94
  68  1.000  0.917  0.120-  79 2.90 125 2.91  81 2.91  67 2.94 156 2.94  13 2.94  69 2.94 112 2.94
                           168 2.94 114 2.94   1 2.94  56 2.94
  69  0.167  0.833  0.120-  82 2.90  81 2.91  80 2.91  65 2.94  58 2.94  70 2.94  67 2.94  56 2.94
                            57 2.94  71 2.94  68 2.94  13 2.94
  70  0.333  0.750  0.120-  78 2.89  82 2.90  83 2.91  72 2.94  71 2.94 158 2.94  59 2.94  69 2.94
                            54 2.94  65 2.94  66 2.94  58 2.94
  71  0.250  0.917  0.120-  82 2.89  84 2.91  26 2.91  70 2.94  72 2.94   4 2.94  59 2.94  69 2.94
                            16 2.94  13 2.94  15 2.94  57 2.94
  72  0.417  0.833  0.120-  83 2.90  84 2.91 175 2.91  70 2.94 158 2.94  71 2.94 163 2.94 151 2.94
                            59 2.94 164 2.94  16 2.94  60 2.94
  73  1.000  0.584  0.237-  62 2.90 162 2.90  61 2.90  86 2.92 179 2.94 174 2.94 173 2.94 186 2.94
                            33 2.95  85 2.95  74 2.95  75 2.96
  74  0.167  0.500  0.238-  23 2.90  61 2.91  86 2.91  63 2.91  76 2.93  34 2.94  36 2.94  33 2.94
                            88 2.94  73 2.95  45 2.96  75 2.96
  75  0.084  0.667  0.238-  67 2.90  86 2.90  63 2.91  76 2.92  80 2.92  62 2.92  79 2.93  91 2.94
                           179 2.95  73 2.96  74 2.96  87 2.98
  76  0.249  0.583  0.238-  89 2.91  63 2.91  65 2.91  64 2.92  75 2.92  74 2.93  80 2.94  88 2.94
                            36 2.95  87 2.96  77 2.96  78 2.96
  77  0.417  0.499  0.237- 116 2.88  64 2.89  66 2.90  89 2.90 181 2.91 127 2.93  36 2.94 129 2.95
                            76 2.96  48 2.96  78 2.97 169 2.97
  78  0.334  0.667  0.238-  70 2.89  66 2.90  89 2.90  65 2.91  82 2.94  80 2.94  94 2.94  83 2.94
                           169 2.94  90 2.96  76 2.96  77 2.97
  79  0.000  0.834  0.238-  68 2.90  67 2.91 168 2.91 125 2.93  81 2.93  75 2.93  91 2.94 180 2.94
                           179 2.94  80 2.94  92 2.95 192 2.95
  80  0.167  0.750  0.238-  65 2.91  69 2.91  67 2.92  75 2.92  76 2.94  78 2.94  81 2.94  79 2.94
                            94 2.94  92 2.94  82 2.94  87 2.95
  81  0.084  0.917  0.238-  13 2.90  69 2.91  68 2.91  79 2.93  25 2.94  82 2.94  26 2.94  80 2.94
                           125 2.94  92 2.94  93 2.95  37 2.95
  82  0.250  0.834  0.238-  71 2.89  69 2.90  70 2.90  94 2.93  26 2.93  84 2.93  81 2.94  78 2.94
                            83 2.94  80 2.94  93 2.95  95 2.96
  83  0.417  0.751  0.238-  72 2.90 158 2.91  70 2.91  84 2.93  90 2.93 175 2.93 169 2.93  78 2.94
                            82 2.94 171 2.94  95 2.95 187 2.95
  84  0.333  0.917  0.238-  16 2.90  71 2.91  72 2.91  83 2.93  82 2.93  29 2.94  28 2.94  26 2.94
                           175 2.94  95 2.94  96 2.95  40 2.95
  85  0.001  0.500  0.358- 185 2.93 144 2.94  45 2.94  33 2.94  44 2.94  86 2.94 186 2.94 173 2.94
                            73 2.95
  86  0.084  0.583  0.356-  75 2.90  74 2.91  73 2.92 186 2.94  85 2.94  88 2.95  45 2.95  91 2.95
                            87 2.96
  87  0.168  0.667  0.360-  94 2.94  92 2.94  89 2.94  80 2.95  76 2.96  86 2.96  91 2.97  88 2.98
                            75 2.98
  88  0.251  0.498  0.358-  48 2.92  47 2.92  36 2.93  45 2.93  74 2.94  76 2.94  86 2.95  89 2.96
                            87 2.98
  89  0.335  0.582  0.355-  77 2.90  78 2.90  76 2.91 181 2.93  48 2.94  87 2.94  90 2.95  88 2.96
                            94 2.97
  90  0.417  0.668  0.358- 187 2.92  83 2.93  94 2.93  95 2.93 182 2.95 169 2.95 181 2.95  89 2.95
                            78 2.96
  91  1.000  0.751  0.358- 192 2.93 186 2.93  92 2.94 191 2.94  79 2.94  75 2.94 179 2.94  86 2.95
                            87 2.97
  92  0.083  0.834  0.358-  37 2.93  91 2.94  93 2.94 192 2.94  87 2.94  81 2.94  80 2.94  79 2.95
                            94 2.96
  93  0.167  0.917  0.359-  94 2.93  92 2.94  38 2.94  40 2.94  95 2.94  37 2.94  26 2.95  81 2.95
                            82 2.95
  94  0.251  0.751  0.358-  95 2.92  93 2.93  82 2.93  90 2.93  87 2.94  78 2.94  80 2.94  92 2.96
                            89 2.97
  95  0.333  0.834  0.359-  94 2.92  96 2.93  40 2.93  90 2.93  93 2.94  84 2.94 187 2.95  83 2.95
                            82 2.96
  96  0.417  0.917  0.358-  95 2.93 187 2.93  41 2.94 133 2.94  40 2.94 188 2.94  84 2.95 175 2.95
                            29 2.95
  97  0.500  0.000  0.000-   6 2.94  98 2.94 153 2.94 109 2.94  60 2.94   5 2.94 152 2.94 164 2.94
                            18 2.94
  98  0.583  0.083  0.000-   6 2.94 103 2.94  97 2.94 110 2.94  99 2.94 109 2.94 100 2.94 153 2.94
                           111 2.94
  99  0.667  0.167  0.000- 100 2.94 111 2.94 101 2.94  98 2.94 113 2.94 115 2.94 106 2.94 103 2.94
                           104 2.94
 100  0.750  0.000  0.000-  99 2.94 112 2.94 111 2.94 153 2.94 101 2.94  98 2.94 156 2.94 155 2.94
                           167 2.94
 101  0.833  0.083  0.000- 106 2.94 102 2.94  99 2.94 113 2.94 114 2.94   1 2.94 100 2.94 156 2.94
                           112 2.94
 102  0.917  0.167  0.000-   1 2.94   2 2.94 101 2.94 114 2.94  14 2.94 106 2.94   7 2.94 107 2.94
                           118 2.94
 103  0.500  0.250  0.000-  98 2.94  11 2.94   6 2.94 110 2.94  24 2.94  99 2.94 104 2.94  12 2.94
                           115 2.94
 104  0.583  0.333  0.000- 145 2.94 117 2.94 116 2.94 115 2.94 105 2.94 106 2.94  12 2.94 103 2.94
                            99 2.94
 105  0.667  0.417  0.000- 146 2.94 145 2.94 148 2.94 157 2.94 119 2.94 107 2.94 104 2.94 106 2.94
                           117 2.94
 106  0.750  0.250  0.000- 101 2.94 118 2.94 102 2.94 104 2.94  99 2.94 107 2.94 105 2.94 113 2.94
                           117 2.94
 107  0.833  0.333  0.000- 148 2.94 108 2.94 120 2.94 105 2.94   7 2.94 106 2.94 102 2.94 119 2.94
                           118 2.94
 108  0.917  0.417  0.000- 148 2.94 149 2.94 107 2.94 160 2.94  49 2.94 120 2.94   8 2.94   7 2.94
                            20 2.94
 109  0.583  0.000  0.120- 177 2.91 122 2.91 121 2.91 110 2.94 167 2.94  97 2.94  98 2.94 153 2.94
                            18 2.94 164 2.94 111 2.94 165 2.94
 110  0.500  0.167  0.120- 123 2.91 121 2.91  35 2.91 109 2.94  98 2.94  18 2.94 111 2.94   6 2.94
                           103 2.94  22 2.94 115 2.94  24 2.94
 111  0.667  0.083  0.120- 124 2.91 122 2.91 123 2.91 113 2.94 115 2.94 112 2.94  99 2.94 110 2.94
                           100 2.94 109 2.94 167 2.94  98 2.94
 112  0.833  0.000  0.120- 124 2.91 180 2.91 125 2.91 113 2.94 111 2.94 100 2.94 114 2.94 167 2.94
                            68 2.94 168 2.94 101 2.94 156 2.94
 113  0.750  0.167  0.120- 128 2.90 126 2.90 124 2.91 111 2.94 112 2.94 115 2.94 114 2.94 101 2.94
                            99 2.94 118 2.94 117 2.94 106 2.94
 114  0.917  0.083  0.120- 126 2.89  25 2.91 125 2.91 118 2.94  14 2.94 113 2.94 102 2.94 101 2.94
                            13 2.94 112 2.94  68 2.94   1 2.94
 115  0.583  0.250  0.120- 127 2.90 128 2.90 123 2.91 111 2.94 113 2.94 117 2.94  99 2.94 104 2.94
                            24 2.94 110 2.94 116 2.94 103 2.94
 116  0.500  0.417  0.120-  77 2.88 127 2.91 129 2.91 157 2.94  66 2.94 117 2.94 145 2.94  64 2.94
                           104 2.94  24 2.94 115 2.94  12 2.94
 117  0.667  0.333  0.120- 129 2.89 128 2.91 130 2.91 157 2.94 116 2.94 115 2.94 104 2.94 118 2.94
                           119 2.94 113 2.94 105 2.94 106 2.94
 118  0.833  0.250  0.120- 130 2.90 126 2.90 131 2.91 114 2.94 106 2.94 117 2.94 113 2.94  14 2.94
                           120 2.94 119 2.94 102 2.94 107 2.94
 119  0.750  0.417  0.120- 130 2.90 170 2.90 132 2.91 159 2.94 160 2.94 157 2.94 148 2.94 105 2.94
                           117 2.94 120 2.94 118 2.94 107 2.94
 120  0.917  0.333  0.120- 132 2.90 131 2.91  31 2.91 160 2.94 107 2.94 108 2.94  20 2.94  19 2.94
                           119 2.94 118 2.94  14 2.94   7 2.94
 121  0.500  0.083  0.238- 110 2.91  18 2.91 109 2.91  35 2.93 123 2.94  30 2.94  29 2.94 177 2.94
                           122 2.94 133 2.94  42 2.95 134 2.95
 122  0.667  0.000  0.238- 111 2.91 109 2.91 167 2.91 177 2.94 124 2.94 123 2.94 178 2.94 180 2.94
                           121 2.94 189 2.94 136 2.95 134 2.95
 123  0.583  0.167  0.238- 110 2.91 111 2.91 115 2.91 127 2.93 121 2.94 122 2.94  35 2.94 128 2.94
                           124 2.94 134 2.94 135 2.95 139 2.95
 124  0.750  0.083  0.238- 112 2.91 111 2.91 113 2.91 128 2.93 180 2.94 122 2.94 125 2.94 123 2.94
                           126 2.94 136 2.95 137 2.95 135 2.95
 125  0.917  1.000  0.238-  68 2.91 112 2.91 114 2.91  79 2.93 126 2.93 180 2.94 124 2.94  25 2.94
                            81 2.94  37 2.94 137 2.95 192 2.95
 126  0.834  0.166  0.238- 114 2.89 118 2.90 113 2.90 142 2.92  25 2.93 125 2.93 131 2.94 124 2.94
                           130 2.94 128 2.94 138 2.95 137 2.96
 127  0.500  0.333  0.238- 115 2.90  24 2.90 116 2.91 140 2.92  77 2.93 123 2.93  35 2.93  36 2.93
                           128 2.94  48 2.95 139 2.96 129 2.96
 128  0.667  0.249  0.238- 113 2.90 115 2.90 117 2.91 140 2.93 142 2.93 124 2.93 129 2.94 123 2.94
                           127 2.94 126 2.94 130 2.95 135 2.95
 129  0.585  0.416  0.238- 117 2.89 181 2.89 157 2.90 116 2.91 140 2.92 130 2.93 170 2.93 128 2.94
                           141 2.95  77 2.95 127 2.96 169 2.97
 130  0.751  0.333  0.238- 118 2.90 119 2.90 117 2.91 141 2.93 129 2.93 131 2.93 142 2.93 132 2.94
                           126 2.94 170 2.95 128 2.95 143 2.95
 131  0.917  0.250  0.238-  14 2.90 120 2.91 118 2.91 130 2.93  27 2.93  31 2.94 143 2.94  25 2.94
                           126 2.94 132 2.94 138 2.95  43 2.95
 132  0.834  0.417  0.238- 160 2.90 120 2.90 119 2.91  31 2.93 173 2.93 170 2.94 130 2.94 172 2.94
                           184 2.94 131 2.94 143 2.94 144 2.96
 133  0.500  0.000  0.358-  42 2.94 134 2.94  96 2.94 188 2.94 189 2.94  41 2.94 121 2.94 177 2.94
                            29 2.94
 134  0.583  0.083  0.359- 135 2.93 139 2.93  42 2.94 133 2.94 136 2.94 189 2.94 123 2.94 121 2.95
                           122 2.95
 135  0.667  0.167  0.359- 134 2.93 142 2.93 136 2.94 139 2.94 137 2.94 140 2.95 123 2.95 124 2.95
                           128 2.95
 136  0.750  0.000  0.359- 137 2.93 191 2.94 189 2.94 135 2.94 192 2.94 134 2.94 124 2.95 122 2.95
                           180 2.95
 137  0.833  0.083  0.359- 142 2.92 192 2.93 136 2.93  37 2.94 135 2.94 138 2.95 125 2.95 124 2.95
                           126 2.96
 138  0.917  0.167  0.359- 142 2.93 143 2.93  37 2.94  38 2.94  43 2.94 137 2.95  25 2.95 131 2.95
                           126 2.95
 139  0.500  0.250  0.359-  48 2.93  47 2.93 134 2.93 135 2.94  42 2.94 140 2.94 123 2.95  35 2.96
                           127 2.96
 140  0.583  0.334  0.356- 127 2.92 129 2.92 128 2.93  48 2.93 139 2.94 181 2.94 135 2.95 142 2.96
                           141 2.97
 141  0.669  0.416  0.358- 143 2.92 130 2.93 170 2.93 184 2.93 142 2.95 129 2.95 181 2.96 182 2.96
                           140 2.97
 142  0.751  0.249  0.357- 137 2.92 126 2.92 128 2.93 138 2.93 135 2.93 130 2.93 141 2.95 140 2.96
                           143 2.97
 143  0.835  0.333  0.358-  43 2.92 141 2.92 144 2.93 138 2.93 131 2.94 132 2.94 184 2.94 130 2.95
                           142 2.97
 144  0.917  0.417  0.359- 184 2.93  44 2.93 143 2.93  85 2.94 185 2.94  43 2.94  31 2.95 173 2.95
                           132 2.96
 145  0.500  0.500  0.000- 104 2.94 116 2.94 105 2.94  12 2.94 157 2.94  66 2.94 146 2.94  53 2.94
                            54 2.94
 146  0.583  0.583  0.000- 105 2.94 159 2.94 147 2.94  54 2.94 148 2.94 145 2.94 151 2.94 158 2.94
                           157 2.94
 147  0.667  0.667  0.000- 152 2.94 149 2.94 154 2.94 161 2.94 146 2.94 151 2.94 148 2.94 159 2.94
                           163 2.94
 148  0.750  0.500  0.000- 108 2.94 107 2.94 149 2.94 105 2.94 119 2.94 160 2.94 146 2.94 147 2.94
                           159 2.94
 149  0.833  0.583  0.000- 108 2.94 148 2.94 147 2.94 162 2.94 161 2.94 160 2.94 150 2.94  49 2.94
                           154 2.94
 150  0.917  0.667  0.000- 155 2.94  55 2.94 149 2.94 154 2.94  50 2.94  49 2.94 162 2.94 166 2.94
                            62 2.94
 151  0.500  0.750  0.000-  60 2.94  59 2.94 152 2.94  72 2.94 163 2.94  54 2.94 147 2.94 146 2.94
                           158 2.94
 152  0.583  0.833  0.000- 154 2.94 147 2.94 153 2.94 151 2.94 163 2.94 165 2.94  60 2.94  97 2.94
                           164 2.94
 153  0.667  0.917  0.000- 154 2.94 152 2.94  97 2.94 167 2.94 165 2.94 109 2.94 100 2.94 155 2.94
                            98 2.94
 154  0.750  0.750  0.000- 152 2.94 153 2.94 147 2.94 165 2.94 155 2.94 166 2.94 161 2.94 150 2.94
                           149 2.94
 155  0.833  0.833  0.000- 150 2.94  55 2.94 154 2.94 166 2.94 168 2.94 156 2.94 153 2.94 100 2.94
                           167 2.94
 156  0.917  0.917  0.000-  55 2.94  68 2.94 155 2.94   1 2.94 100 2.94  56 2.94 101 2.94 168 2.94
                           112 2.94
 157  0.583  0.500  0.120- 129 2.90 169 2.90 170 2.92 116 2.94 117 2.94  66 2.94 119 2.94 105 2.94
                           145 2.94 159 2.94 158 2.94 146 2.94
 158  0.500  0.667  0.120- 169 2.88  83 2.91 171 2.91  72 2.94  66 2.94  70 2.94  54 2.94 159 2.94
                           163 2.94 157 2.94 146 2.94 151 2.94
 159  0.667  0.583  0.120- 170 2.90 171 2.91 172 2.91 119 2.94 146 2.94 161 2.94 157 2.94 158 2.94
                           160 2.94 163 2.94 147 2.94 148 2.94
 160  0.833  0.500  0.120- 132 2.90 172 2.91 173 2.91 120 2.94 162 2.94 108 2.94 119 2.94  20 2.94
                           148 2.94 149 2.94 159 2.94 161 2.94
 161  0.750  0.667  0.120- 172 2.90 176 2.91 174 2.91 165 2.94 162 2.94 166 2.94 147 2.94 149 2.94
                           154 2.94 163 2.94 159 2.94 160 2.94
 162  0.917  0.583  0.120-  73 2.90 173 2.91 174 2.91  20 2.94 160 2.94 161 2.94 149 2.94 166 2.94
                           150 2.94  49 2.94  62 2.94  61 2.94
 163  0.583  0.750  0.120- 171 2.90 175 2.91 176 2.91 164 2.94 165 2.94  72 2.94 152 2.94 151 2.94
                           161 2.94 158 2.94 159 2.94 147 2.94
 164  0.500  0.917  0.120- 175 2.90  29 2.91 177 2.91 163 2.94  16 2.94  60 2.94 109 2.94  72 2.94
                           165 2.94  18 2.94  97 2.94 152 2.94
 165  0.667  0.833  0.120- 176 2.91 177 2.91 178 2.91 166 2.94 161 2.94 167 2.94 154 2.94 163 2.94
                           152 2.94 153 2.94 164 2.94 109 2.94
 166  0.833  0.750  0.120- 179 2.91 174 2.91 178 2.91 165 2.94 167 2.94 161 2.94 168 2.94 155 2.94
                           154 2.94 162 2.94 150 2.94  62 2.94
 167  0.750  0.917  0.120- 178 2.91 122 2.91 180 2.91 166 2.94 165 2.94 109 2.94 153 2.94 112 2.94
                           168 2.94 111 2.94 100 2.94 155 2.94
 168  0.917  0.833  0.120- 179 2.90 180 2.91  79 2.91  62 2.94  67 2.94 166 2.94  55 2.94 155 2.94
                            68 2.94 167 2.94 112 2.94 156 2.94
 169  0.500  0.584  0.237- 158 2.88 181 2.88 157 2.90  66 2.91 171 2.93  83 2.93  78 2.94 170 2.94
                            90 2.95 182 2.96 129 2.97  77 2.97
 170  0.667  0.500  0.238- 159 2.90 119 2.90 157 2.92 172 2.93 141 2.93 129 2.93 132 2.94 182 2.94
                           171 2.94 169 2.94 130 2.95 184 2.96
 171  0.584  0.667  0.238- 163 2.90 159 2.91 158 2.91 169 2.93 176 2.93 182 2.93 172 2.94 175 2.94
                            83 2.94 170 2.94 187 2.95 183 2.95
 172  0.750  0.583  0.238- 161 2.90 160 2.91 159 2.91 170 2.93 174 2.94 171 2.94 173 2.94 132 2.94
                           176 2.94 184 2.94 183 2.94 185 2.96
 173  0.917  0.500  0.238-  20 2.91 162 2.91 160 2.91 132 2.93  31 2.94 172 2.94  33 2.94  73 2.94
                           174 2.94 185 2.94  85 2.94 144 2.95
 174  0.833  0.667  0.238- 166 2.91 162 2.91 161 2.91 172 2.94  73 2.94 176 2.94 178 2.94 185 2.94
                           173 2.94 179 2.94 190 2.94 186 2.95
 175  0.500  0.834  0.238- 164 2.90 163 2.91  72 2.91  83 2.93 177 2.93  29 2.94 171 2.94 176 2.94
                            84 2.94 187 2.94 188 2.95  96 2.95
 176  0.667  0.750  0.238- 165 2.91 161 2.91 163 2.91 171 2.93 178 2.94 174 2.94 177 2.94 172 2.94
                           175 2.94 188 2.94 183 2.94 190 2.95
 177  0.583  0.917  0.238- 109 2.91 165 2.91 164 2.91 175 2.93 122 2.94 176 2.94 121 2.94 178 2.94
                            29 2.94 133 2.94 188 2.94 189 2.95
 178  0.750  0.833  0.238- 167 2.91 166 2.91 165 2.91 176 2.94 180 2.94 122 2.94 174 2.94 179 2.94
                           177 2.94 190 2.94 189 2.95 191 2.95
 179  0.917  0.750  0.238- 168 2.90  62 2.90 166 2.91 180 2.94  73 2.94 178 2.94 186 2.94  79 2.94
                           174 2.94  91 2.94  75 2.95 191 2.95
 180  0.833  0.917  0.238- 112 2.91 168 2.91 167 2.91 125 2.94 124 2.94 179 2.94 178 2.94  79 2.94
                           122 2.94 191 2.95 136 2.95 192 2.95
 181  0.502  0.500  0.354- 169 2.88 129 2.89  77 2.91  89 2.93 182 2.93 140 2.94  90 2.95 141 2.96
                            48 2.98
 182  0.585  0.584  0.358- 183 2.92 181 2.93 171 2.93 170 2.94 187 2.94 184 2.94  90 2.95 141 2.96
                           169 2.96
 183  0.668  0.667  0.359- 182 2.92 190 2.93 184 2.94 188 2.94 185 2.94 187 2.94 172 2.94 176 2.94
                           171 2.95
 184  0.751  0.500  0.358- 144 2.93 141 2.93 185 2.93 183 2.94 172 2.94 132 2.94 182 2.94 143 2.94
                           170 2.96
 185  0.834  0.583  0.358-  85 2.93 184 2.93 186 2.94 190 2.94 174 2.94 144 2.94 183 2.94 173 2.94
                           172 2.96
 186  0.917  0.667  0.358-  91 2.93 185 2.94 191 2.94 179 2.94  86 2.94  85 2.94  73 2.94 190 2.94
                           174 2.95
 187  0.501  0.750  0.359-  90 2.92 188 2.93  96 2.93 182 2.94 183 2.94 175 2.94 171 2.95  95 2.95
                            83 2.95
 188  0.584  0.833  0.358- 187 2.93 189 2.94 133 2.94 183 2.94 190 2.94  96 2.94 176 2.94 177 2.94
                           175 2.95
 189  0.667  0.917  0.358- 136 2.94 191 2.94 188 2.94 190 2.94 134 2.94 133 2.94 122 2.94 178 2.95
                           177 2.95
 190  0.750  0.750  0.358- 183 2.93 191 2.93 185 2.94 189 2.94 188 2.94 178 2.94 174 2.94 186 2.94
                           176 2.95
 191  0.833  0.834  0.359- 190 2.93 136 2.94 189 2.94  91 2.94 192 2.94 186 2.94 178 2.95 180 2.95
                           179 2.95
 192  0.917  0.917  0.359-  91 2.93 137 2.93 191 2.94 136 2.94  92 2.94  37 2.94 125 2.95 180 2.95
                            79 2.95
 193  0.426  0.639  0.527- 201 1.23
 194  0.090  0.545  0.529- 220 1.10 221 1.10 219 1.11 195 1.50
 195  0.150  0.566  0.523- 196 1.39 200 1.42 194 1.50
 196  0.133  0.640  0.511- 213 1.09 195 1.39 197 1.40
 197  0.189  0.661  0.506- 214 1.09 196 1.40 198 1.42
 198  0.266  0.606  0.518- 199 1.40 210 1.40 197 1.42
 199  0.284  0.531  0.532- 215 1.09 198 1.40 200 1.41
 200  0.228  0.511  0.532- 209 1.38 199 1.41 195 1.42
 201  0.397  0.598  0.520- 193 1.23 211 1.38 210 1.40
 202  0.569  0.499  0.516- 230 1.09 203 1.40 207 1.41
 203  0.647  0.445  0.519- 223 1.09 204 1.40 202 1.40
 204  0.675  0.367  0.521- 203 1.40 205 1.42 208 1.50
 205  0.622  0.341  0.517- 212 1.38 206 1.41 204 1.42
 206  0.544  0.395  0.512- 224 1.09 205 1.41 207 1.41
 207  0.517  0.473  0.513- 202 1.41 206 1.41 211 1.41
 208  0.758  0.311  0.529- 227 1.10 225 1.10 226 1.11 204 1.50
 209  0.248  0.436  0.545- 217 1.01 216 1.01 200 1.38
 210  0.318  0.632  0.518- 218 1.02 198 1.40 201 1.40
 211  0.438  0.521  0.511- 222 1.02 201 1.38 207 1.41
 212  0.646  0.265  0.521- 228 1.02 229 1.02 205 1.38
 213  0.074  0.684  0.504- 196 1.09
 214  0.173  0.720  0.499- 197 1.09
 215  0.341  0.488  0.547- 199 1.09
 216  0.210  0.420  0.531- 209 1.01
 217  0.303  0.396  0.537- 209 1.01
 218  0.295  0.689  0.515- 210 1.02
 219  0.098  0.501  0.491- 194 1.11
 220  0.033  0.594  0.520- 194 1.10
 221  0.091  0.520  0.578- 194 1.10
 222  0.409  0.497  0.492- 211 1.02
 223  0.687  0.465  0.522- 203 1.09
 224  0.503  0.374  0.511- 206 1.09
 225  0.769  0.279  0.576- 208 1.10
 226  0.780  0.269  0.488- 208 1.11
 227  0.791  0.340  0.529- 208 1.10
 228  0.700  0.229  0.507- 212 1.02
 229  0.610  0.248  0.503- 212 1.02
 230  0.549  0.559  0.516- 202 1.09
 
  LATTYP: Found a hexagonal cell.
 ALAT       =    20.3604714350
 C/A-ratio  =     0.9822955261
  
  Lattice vectors:
  
 A1 = (  10.1802357175, -17.6326854957,   0.0000000000)
 A2 = ( -20.3604714350,   0.0000000000,   0.0000000000)
 A3 = (   0.0000000000,   0.0000000000, -20.0000000000)


Analysis of symmetry for initial positions (statically):
=====================================================================
 Subroutine PRICEL returns:
 Original cell was already a primitive cell.
 

 Routine SETGRP: Setting up the symmetry group for a 
 hexagonal supercell.


 Subroutine GETGRP returns: Found  1 space group operations
 (whereof  1 operations were pure point group operations)
 out of a pool of 24 trial point group operations.


The static configuration has the point symmetry C_1 .


Analysis of symmetry for dynamics (positions and initial velocities):
=====================================================================
 Subroutine PRICEL returns:
 Original cell was already a primitive cell.
 

 Routine SETGRP: Setting up the symmetry group for a 
 hexagonal supercell.


 Subroutine GETGRP returns: Found  1 space group operations
 (whereof  1 operations were pure point group operations)
 out of a pool of 24 trial point group operations.


The dynamic configuration has the point symmetry C_1 .


Analysis of constrained symmetry for selective dynamics:
=====================================================================
 Subroutine PRICEL returns:
 Original cell was already a primitive cell.
 

 Routine SETGRP: Setting up the symmetry group for a 
 hexagonal supercell.


 Subroutine GETGRP returns: Found  1 space group operations
 (whereof  1 operations were pure point group operations)
 out of a pool of 24 trial point group operations.


The constrained configuration has the point symmetry C_1 .


 Subroutine INISYM returns: Found  1 space group operations
 (whereof  1 operations are pure point group operations),
 and found     1 'primitive' translations

 
 
 KPOINTS: K-POINTS                                

Automatic generation of k-mesh.
Space group operators:
 irot       det(A)        alpha          n_x          n_y          n_z        tau_x        tau_y        tau_z
    1     1.000000     0.000000     1.000000     0.000000     0.000000     0.000000     0.000000     0.000000
 
 Subroutine IBZKPT returns following result:
 ===========================================
 
 Found      5 irreducible k-points:
 
 Following reciprocal coordinates:
            Coordinates               Weight
  0.000000  0.000000  0.000000      1.000000
  0.333333  0.000000  0.000000      2.000000
  0.000000  0.333333  0.000000      2.000000
  0.333333  0.333333  0.000000      2.000000
 -0.333333  0.333333  0.000000      2.000000
 
 Following cartesian coordinates:
            Coordinates               Weight
  0.000000  0.000000  0.000000      1.000000
  0.016372 -0.009452  0.000000      2.000000
  0.000000  0.018904  0.000000      2.000000
  0.016372  0.009452  0.000000      2.000000
 -0.016372  0.028356  0.000000      2.000000
 


--------------------------------------------------------------------------------------------------------




 Dimension of arrays:
   k-points           NKPTS =      5   k-points in BZ     NKDIM =      5   number of bands    NBANDS=   1332
   number of dos      NEDOS =    301   number of ions     NIONS =    230
   non local maximal  LDIM  =      6   non local SUM 2l+1 LMDIM =     18
   total plane-waves  NPLWV = ******
   max r-space proj   IRMAX =   2164   max aug-charges    IRDMAX=  10927
   dimension x,y,z NGX =   108 NGY =  108 NGZ =  108
   dimension x,y,z NGXF=   216 NGYF=  216 NGZF=  216
   support grid    NGXF=   216 NGYF=  216 NGZF=  216
   ions per type =             192   1  15   4  18
   NGX,Y,Z   is equivalent  to a cutoff of   8.82,  8.82,  8.98 a.u.
   NGXF,Y,Z  is equivalent  to a cutoff of  17.64, 17.64, 17.95 a.u.

 SYSTEM =  x                                       
 POSCAR =  Au  O  C  N  H                          

 Startparameter for this run:
   NWRITE =      0    write-flag & timer
   PREC   = normal    normal or accurate (medium, high low for compatibility)
   ISTART =      0    job   : 0-new  1-cont  2-samecut
   ICHARG =      2    charge: 1-file 2-atom 10-const
   ISPIN  =      1    spin polarized calculation?
   LNONCOLLINEAR =      F non collinear calculations
   LSORBIT =      F    spin-orbit coupling
   INIWAV =      1    electr: 0-lowe 1-rand  2-diag
   LASPH  =      F    aspherical Exc in radial PAW
   METAGGA=      F    non-selfconsistent MetaGGA calc.

 Electronic Relaxation 1
   ENCUT  =  450.0 eV  33.07 Ry    5.75 a.u.  35.22 35.22 34.59*2*pi/ulx,y,z
   ENINI  =  450.0     initial cutoff
   ENAUG  =  644.9 eV  augmentation charge cutoff
   NELM   =     50;   NELMIN=  5; NELMDL= -7     # of ELM steps 
   EDIFF  = 0.1E-04   stopping-criterion for ELM
   LREAL  =      T    real-space projection
   NLSPLINE    = F    spline interpolate recip. space projectors
   LCOMPAT=      F    compatible to vasp.4.4
   GGA_COMPAT  = T    GGA compatible to vasp.4.4-vasp.4.6
   LMAXPAW     = -100 max onsite density
   LMAXMIX     =    2 max onsite mixed and CHGCAR
   VOSKOWN=      0    Vosko Wilk Nusair interpolation
   ROPT   =   -0.00050  -0.00050  -0.00050  -0.00050
   ROPT   =   -0.00050
 Ionic relaxation
   EDIFFG = -.2E-01   stopping-criterion for IOM
   NSW    =    300    number of steps for IOM
   NBLOCK =      1;   KBLOCK =    300    inner block; outer block 
   IBRION =      2    ionic relax: 0-MD 1-quasi-New 2-CG
   NFREE  =      2    steps in history (QN), initial steepest desc. (CG)
   ISIF   =      2    stress and relaxation
   IWAVPR =     11    prediction:  0-non 1-charg 2-wave 3-comb
   ISYM   =      2    0-nonsym 1-usesym 2-fastsym
   LCORR  =      T    Harris-Foulkes like correction to forces

   POTIM  = 0.1500    time-step for ionic-motion
   TEIN   =    0.0    initial temperature
   TEBEG  =    0.0;   TEEND  =   0.0 temperature during run
   SMASS  =  -3.00    Nose mass-parameter (am)
   estimated Nose-frequenzy (Omega)   =  0.10E-29 period in steps =****** mass=  -0.947E-26a.u.
   SCALEE = 1.0000    scale energy and forces
   NPACO  =    256;   APACO  = 16.0  distance and # of slots for P.C.
   PSTRESS=    0.0 pullay stress

  Mass of Ions in am
   POMASS = 196.97 16.00 12.01 14.00  1.00
  Ionic Valenz
   ZVAL   =  11.00  6.00  4.00  5.00  1.00
  Atomic Wigner-Seitz radii
   RWIGS  =  -1.00 -1.00 -1.00 -1.00 -1.00
  virtual crystal weights 
   VCA    =   1.00  1.00  1.00  1.00  1.00
   NELECT =    2216.0000    total number of electrons
   NUPDOWN=      -1.0000    fix difference up-down

 DOS related values:
   EMIN   =  10.00;   EMAX   =-10.00  energy-range for DOS
   EFERMI =   0.00
   ISMEAR =     0;   SIGMA  =   0.03  broadening in eV -4-tet -1-fermi 0-gaus

 Electronic relaxation 2 (details)
   IALGO  =     68    algorithm
   LDIAG  =      T    sub-space diagonalisation (order eigenvalues)
   LSUBROT=      F    optimize rotation matrix (better conditioning)
   TURBO    =      0    0=normal 1=particle mesh
   IRESTART =      0    0=no restart 2=restart with 2 vectors
   NREBOOT  =      0    no. of reboots
   NMIN     =      0    reboot dimension
   EREF     =   0.00    reference energy to select bands
   IMIX   =      4    mixing-type and parameters
     AMIX     =   0.40;   BMIX     =  1.00
     AMIX_MAG =   1.60;   BMIX_MAG =  1.00
     AMIN     =   0.10
     WC   =   100.;   INIMIX=   1;  MIXPRE=   1;  MAXMIX= -45

 Intra band minimization:
   WEIMIN = 0.0010     energy-eigenvalue tresh-hold
   EBREAK =  0.19E-08  absolut break condition
   DEPER  =   0.30     relativ break condition  

   TIME   =   0.40     timestep for ELM

  volume/ion in A,a.u.               =      31.22       210.67
  Fermi-wavevector in a.u.,A,eV,Ry     =   1.106333  2.090667 16.653169  1.223973
  Thomas-Fermi vector in A             =   2.242833
 
 Write flags
   LWAVE        =      F    write WAVECAR
   LDOWNSAMPLE  =      F    k-point downsampling of WAVECAR
   LCHARG       =      F    write CHGCAR
   LVTOT        =      F    write LOCPOT, total local potential
   LVHAR        =      F    write LOCPOT, Hartree potential only
   LELF         =      F    write electronic localiz. function (ELF)
   LORBIT       =      0    0 simple, 1 ext, 2 COOP (PROOUT), +10 PAW based schemes


 Dipole corrections
   LMONO  =      F    monopole corrections only (constant potential shift)
   LDIPOL =      T    correct potential (dipole corrections)
   IDIPOL =      3    1-x, 2-y, 3-z, 4-all directions 
   EPSILON=  1.0000000 bulk dielectric constant

 Exchange correlation treatment:
   GGA     =    PE    GGA type
   LEXCH   =     8    internal setting for exchange type
   VOSKOWN=      0    Vosko Wilk Nusair interpolation
   LHFCALC =     F    Hartree Fock is set to
   LHFONE  =     F    Hartree Fock one center treatment
   AEXX    =    0.0000 exact exchange contribution

 Linear response parameters
   LEPSILON=     F    determine dielectric tensor
   LRPA    =     F    only Hartree local field effects (RPA)
   LNABLA  =     F    use nabla operator in PAW spheres
   LVEL    =     F    velocity operator in full k-point grid
   LINTERFAST=   F  fast interpolation
   KINTER  =     0    interpolate to denser k-point grid
   CSHIFT  =0.1000    complex shift for real part using Kramers Kronig
   OMEGAMAX=  -1.0    maximum frequency
   DEG_THRESHOLD= 0.2000000E-02 threshold for treating states as degnerate
   RTIME   =   -0.100 relaxation time in fs
  (WPLASMAI=    0.000 imaginary part of plasma frequency in eV, 0.658/RTIME)
   DFIELD  = 0.0000000 0.0000000 0.0000000 field for delta impulse in time
 
 Orbital magnetization related:
   ORBITALMAG=     F  switch on orbital magnetization
   LCHIMAG   =     F  perturbation theory with respect to B field
   DQ        =  0.001000  dq finite difference perturbation B field
   LLRAUG    =     F  two centre corrections for induced B field



--------------------------------------------------------------------------------------------------------


 conjugate gradient relaxation of ions
   using selective dynamics as specified on POSCAR
 charge density and potential will be updated during run
 non-spin polarized calculation
 RMM-DIIS sequential band-by-band and
  variant of blocked Davidson during initial phase
 perform sub-space diagonalisation
    before iterative eigenvector-optimisation
 modified Broyden-mixing scheme, WC =      100.0
 initial mixing is a Kerker type mixing with AMIX =  0.4000 and BMIX =      1.0000
 Hartree-type preconditioning will be used
 using additional bands          224
 real space projection scheme for non local part
 use partial core corrections
 calculate Harris-corrections to forces 
   (improved forces if not selfconsistent)
 use gradient corrections 
 use of overlap-Matrix (Vanderbilt PP)
 Gauss-broadening in eV      SIGMA  =   0.03


--------------------------------------------------------------------------------------------------------


  energy-cutoff  :      450.00
  volume of cell :     7180.20
      direct lattice vectors                 reciprocal lattice vectors
    20.360471435  0.000000000  0.000000000     0.049114776 -0.028356429  0.000000000
    10.180235718 17.632685496  0.000000000     0.000000000  0.056712859  0.000000000
     0.000000000  0.000000000 20.000000000     0.000000000  0.000000000  0.050000000

  length of vectors
    20.360471435 20.360471435 20.000000000     0.056712859  0.056712859  0.050000000


 
 k-points in units of 2pi/SCALE and weight: K-POINTS                                
   0.00000000  0.00000000  0.00000000       0.111
   0.01637159 -0.00945214  0.00000000       0.222
   0.00000000  0.01890429  0.00000000       0.222
   0.01637159  0.00945214  0.00000000       0.222
  -0.01637159  0.02835643  0.00000000       0.222
 
 k-points in reciprocal lattice and weights: K-POINTS                                
   0.00000000  0.00000000  0.00000000       0.111
   0.33333333  0.00000000  0.00000000       0.222
   0.00000000  0.33333333  0.00000000       0.222
   0.33333333  0.33333333  0.00000000       0.222
  -0.33333333  0.33333333  0.00000000       0.222
 
 position of ions in fractional coordinates (direct lattice) 
   0.00000000  0.00000000  0.00000000
   0.08333333  0.08333333  0.00000000
   0.16666667  0.16666667  0.00000000
   0.25000000  0.00000000  0.00000000
   0.33333333  0.08333333  0.00000000
   0.41666667  0.16666667  0.00000000
   0.00000000  0.25000000  0.00000000
   0.08333333  0.33333333  0.00000000
   0.16666667  0.41666667  0.00000000
   0.25000000  0.25000000  0.00000000
   0.33333333  0.33333333  0.00000000
   0.41666667  0.41666667  0.00000000
   0.08333333  0.00000000  0.11997523
   0.00000000  0.16666667  0.11997523
   0.16666667  0.08333333  0.11997523
   0.33333333  0.00000000  0.11997523
   0.25000000  0.16666667  0.11997523
   0.41666667  0.08333333  0.11997523
   0.08333333  0.25000000  0.11997523
   1.00000000  0.41666667  0.11997523
   0.16666667  0.33333333  0.11997523
   0.33333333  0.25000000  0.11997523
   0.25000000  0.41666667  0.11997523
   0.41666667  0.33333333  0.11997523
   0.00018593  0.08313677  0.23804311
   0.16660917  0.00017077  0.23811631
   0.08334817  0.16674141  0.23802977
   0.24999473  0.08341773  0.23804414
   0.41661717  0.00010466  0.23800995
   0.33326903  0.16677579  0.23809397
   0.00005826  0.33339916  0.23807175
   0.16670539  0.25006756  0.23806159
   0.08352226  0.41654916  0.23795978
   0.25028170  0.33303115  0.23804247
   0.41662790  0.24990402  0.23812483
   0.33357170  0.41603635  0.23755049
   0.99990089  0.00015826  0.35841631
   0.08328578  0.08341119  0.35836018
   0.16669865  0.16666490  0.35839711
   0.24999603  0.00015609  0.35849836
   0.33332560  0.08337943  0.35845268
   0.41671082  0.16659271  0.35864812
   0.00042351  0.24988579  0.35868287
   0.08355166  0.33328471  0.35857793
   0.16720754  0.41605555  0.35884750
   0.25005799  0.24988947  0.35877433
   0.33370109  0.33248852  0.35953711
   0.41674082  0.41603529  0.35832203
   1.00000000  0.50000000  0.00000000
   0.08333333  0.58333333  0.00000000
   0.16666667  0.66666667  0.00000000
   0.25000000  0.50000000  0.00000000
   0.33333333  0.58333333  0.00000000
   0.41666667  0.66666667  0.00000000
   1.00000000  0.75000000  0.00000000
   0.08333333  0.83333333  0.00000000
   0.16666667  0.91666667  0.00000000
   0.25000000  0.75000000  0.00000000
   0.33333333  0.83333333  0.00000000
   0.41666667  0.91666667  0.00000000
   0.08333333  0.50000000  0.11997523
   0.00000000  0.66666667  0.11997523
   0.16666667  0.58333333  0.11997523
   0.33333333  0.50000000  0.11997523
   0.25000000  0.66666667  0.11997523
   0.41666667  0.58333333  0.11997523
   0.08333333  0.75000000  0.11997523
   1.00000000  0.91666667  0.11997523
   0.16666667  0.83333333  0.11997523
   0.33333333  0.75000000  0.11997523
   0.25000000  0.91666667  0.11997523
   0.41666667  0.83333333  0.11997523
   0.99994467  0.58362314  0.23748693
   0.16707521  0.49952533  0.23787437
   0.08390256  0.66726134  0.23839126
   0.24948577  0.58345518  0.23832253
   0.41726503  0.49900574  0.23684868
   0.33354438  0.66721063  0.23752834
   0.00004272  0.83370538  0.23793746
   0.16687988  0.74996734  0.23848911
   0.08350560  0.91667489  0.23793973
   0.24999986  0.83385057  0.23761031
   0.41673469  0.75073083  0.23801391
   0.33332982  0.91692811  0.23805275
   0.00066042  0.49998450  0.35794937
   0.08421543  0.58333401  0.35592962
   0.16841959  0.66701097  0.36013847
   0.25136593  0.49823327  0.35784241
   0.33527207  0.58243670  0.35482260
   0.41744761  0.66777236  0.35804972
   0.99980037  0.75078550  0.35809016
   0.08317268  0.83387040  0.35846923
   0.16667969  0.91685093  0.35858976
   0.25114204  0.75084639  0.35774196
   0.33345607  0.83410822  0.35878456
   0.41669181  0.91676602  0.35847777
   0.50000000  0.00000000  0.00000000
   0.58333333  0.08333333  0.00000000
   0.66666667  0.16666667  0.00000000
   0.75000000  0.00000000  0.00000000
   0.83333333  0.08333333  0.00000000
   0.91666667  0.16666667  0.00000000
   0.50000000  0.25000000  0.00000000
   0.58333333  0.33333333  0.00000000
   0.66666667  0.41666667  0.00000000
   0.75000000  0.25000000  0.00000000
   0.83333333  0.33333333  0.00000000
   0.91666667  0.41666667  0.00000000
   0.58333333  0.00000000  0.11997523
   0.50000000  0.16666667  0.11997523
   0.66666667  0.08333333  0.11997523
   0.83333333  0.00000000  0.11997523
   0.75000000  0.16666667  0.11997523
   0.91666667  0.08333333  0.11997523
   0.58333333  0.25000000  0.11997523
   0.50000000  0.41666667  0.11997523
   0.66666667  0.33333333  0.11997523
   0.83333333  0.25000000  0.11997523
   0.75000000  0.41666667  0.11997523
   0.91666667  0.33333333  0.11997523
   0.49988594  0.08346567  0.23807009
   0.66665742  0.00001498  0.23803977
   0.58325843  0.16656569  0.23808108
   0.75003186  0.08318982  0.23801451
   0.91674685  0.99981717  0.23808668
   0.83402084  0.16599353  0.23756048
   0.50001128  0.33283788  0.23757814
   0.66700781  0.24948312  0.23766485
   0.58481615  0.41605336  0.23755617
   0.75089625  0.33294531  0.23788792
   0.91699982  0.24980441  0.23789144
   0.83374114  0.41667095  0.23794476
   0.50003823  0.00005837  0.35830798
   0.58327879  0.08341750  0.35854475
   0.66655675  0.16650962  0.35870485
   0.74996634  0.00000424  0.35852522
   0.83335156  0.08299697  0.35866114
   0.91679745  0.16663516  0.35850373
   0.50003225  0.24985053  0.35909768
   0.58292347  0.33352014  0.35632372
   0.66910505  0.41594288  0.35780630
   0.75074996  0.24870716  0.35690083
   0.83486115  0.33298041  0.35833334
   0.91744476  0.41668703  0.35877206
   0.50000000  0.50000000  0.00000000
   0.58333333  0.58333333  0.00000000
   0.66666667  0.66666667  0.00000000
   0.75000000  0.50000000  0.00000000
   0.83333333  0.58333333  0.00000000
   0.91666667  0.66666667  0.00000000
   0.50000000  0.75000000  0.00000000
   0.58333333  0.83333333  0.00000000
   0.66666667  0.91666667  0.00000000
   0.75000000  0.75000000  0.00000000
   0.83333333  0.83333333  0.00000000
   0.91666667  0.91666667  0.00000000
   0.58333333  0.50000000  0.11997523
   0.50000000  0.66666667  0.11997523
   0.66666667  0.58333333  0.11997523
   0.83333333  0.50000000  0.11997523
   0.75000000  0.66666667  0.11997523
   0.91666667  0.58333333  0.11997523
   0.58333333  0.75000000  0.11997523
   0.50000000  0.91666667  0.11997523
   0.66666667  0.83333333  0.11997523
   0.83333333  0.75000000  0.11997523
   0.75000000  0.91666667  0.11997523
   0.91666667  0.83333333  0.11997523
   0.50025931  0.58432090  0.23736691
   0.66725279  0.50002857  0.23806045
   0.58369060  0.66700477  0.23800177
   0.75026127  0.58335961  0.23797102
   0.91684839  0.49993121  0.23800967
   0.83339236  0.66672098  0.23800924
   0.50007992  0.83364207  0.23798000
   0.66681079  0.75008968  0.23804732
   0.58337158  0.91676336  0.23803219
   0.75010466  0.83336998  0.23804219
   0.91678060  0.75017302  0.23779548
   0.83337667  0.91670394  0.23802994
   0.50153796  0.50043493  0.35408113
   0.58461189  0.58362723  0.35801116
   0.66751503  0.66660345  0.35851258
   0.75145291  0.49995213  0.35845508
   0.83433459  0.58345133  0.35841034
   0.91736561  0.66692754  0.35806652
   0.50068631  0.75036264  0.35858989
   0.58354286  0.83340191  0.35838365
   0.66674659  0.91672380  0.35841204
   0.75037421  0.75003838  0.35838602
   0.83325325  0.83351690  0.35852000
   0.91655836  0.91678326  0.35878228
   0.42560191  0.63919008  0.52732087
   0.09005603  0.54457907  0.52856311
   0.15029866  0.56616729  0.52290078
   0.13326135  0.64045906  0.51050287
   0.18936553  0.66100323  0.50590097
   0.26624263  0.60610289  0.51834174
   0.28427332  0.53145155  0.53168861
   0.22770257  0.51067784  0.53190320
   0.39729884  0.59841553  0.51950176
   0.56930382  0.49900313  0.51563367
   0.64677029  0.44525280  0.51931612
   0.67473162  0.36705962  0.52097001
   0.62153452  0.34134474  0.51688974
   0.54365663  0.39462462  0.51240240
   0.51706044  0.47306675  0.51301037
   0.75763035  0.31142101  0.52918000
   0.24785063  0.43644533  0.54481994
   0.31819214  0.63210113  0.51788959
   0.43776281  0.52095885  0.51090272
   0.64588256  0.26464979  0.52063590
   0.07397501  0.68424688  0.50384200
   0.17348869  0.72035175  0.49930760
   0.34115710  0.48824258  0.54660558
   0.21044669  0.41973958  0.53109439
   0.30282802  0.39648539  0.53686812
   0.29458618  0.68945169  0.51535903
   0.09786555  0.50139509  0.49087405
   0.03348269  0.59391368  0.52039213
   0.09107883  0.52034862  0.57815695
   0.40873484  0.49652343  0.49183867
   0.68737916  0.46535335  0.52205895
   0.50297267  0.37448887  0.51073738
   0.76864201  0.27940837  0.57629859
   0.77985709  0.26924618  0.48818538
   0.79090198  0.34038536  0.52921581
   0.70047824  0.22882127  0.50675562
   0.60952697  0.24824907  0.50272301
   0.54936062  0.55941048  0.51633988
 
 position of ions in cartesian coordinates  (Angst):
   0.00000000  0.00000000  0.00000000
   2.54505893  1.46939046  0.00000000
   5.09011786  2.93878092  0.00000000
   5.09011786  0.00000000  0.00000000
   7.63517679  1.46939046  0.00000000
  10.18023572  2.93878092  0.00000000
   2.54505893  4.40817137  0.00000000
   5.09011786  5.87756183  0.00000000
   7.63517679  7.34695229  0.00000000
   7.63517679  4.40817137  0.00000000
  10.18023572  5.87756183  0.00000000
  12.72529465  7.34695229  0.00000000
   1.69670595  0.00000000  2.39950457
   1.69670595  2.93878092  2.39950457
   4.24176488  1.46939046  2.39950457
   6.78682381  0.00000000  2.39950457
   6.78682381  2.93878092  2.39950457
   9.33188274  1.46939046  2.39950457
   4.24176488  4.40817137  2.39950457
  24.60223632  7.34695229  2.39950457
   6.78682381  5.87756183  2.39950457
   9.33188274  4.40817137  2.39950457
   9.33188274  7.34695229  2.39950457
  11.87694167  5.87756183  2.39950457
   0.85013750  1.46592455  4.76086210
   3.39397982  0.00301116  4.76232627
   3.39447490  2.94009878  4.76059540
   5.93922269  1.47087859  4.76088285
   8.48358739  0.00184543  4.76019901
   8.48333138  2.94070508  4.76187947
   3.39526814  5.87872246  4.76143506
   5.93994694  4.40936258  4.76123183
   5.94112123  7.34488033  4.75919556
   8.48618907  5.87223348  4.76084933
  11.02682235  4.40647908  4.76249664
  11.02702528  7.33583819  4.75100982
  20.36006460  0.00279056  7.16832619
   2.54488343  1.47076330  7.16720361
   5.09075117  2.93874977  7.16794223
   5.09162611  0.00275235  7.16996711
   7.63548850  1.47020320  7.16905363
  10.18038175  2.93747687  7.17296239
   2.55251906  4.40615763  7.17365730
   5.09406812  5.87670453  7.17155855
   7.63996789  7.33617663  7.17695007
   7.63523232  4.40622246  7.17548661
  10.17912302  5.86266555  7.19074214
  12.72037686  7.33581935  7.16644067
  25.45058929  8.81634275  0.00000000
   7.63517679 10.28573321  0.00000000
  10.18023572 11.75512366  0.00000000
  10.18023572  8.81634275  0.00000000
  12.72529465 10.28573321  0.00000000
  15.27035358 11.75512366  0.00000000
  27.99564822 13.22451412  0.00000000
  10.18023572 14.69390458  0.00000000
  12.72529465 16.16329504  0.00000000
  12.72529465 13.22451412  0.00000000
  15.27035358 14.69390458  0.00000000
  17.81541251 16.16329504  0.00000000
   6.78682381  8.81634275  2.39950457
   6.78682381 11.75512366  2.39950457
   9.33188274 10.28573321  2.39950457
  11.87694167  8.81634275  2.39950457
  11.87694167 11.75512366  2.39950457
  14.42200060 10.28573321  2.39950457
   9.33188274 13.22451412  2.39950457
  29.69235418 16.16329504  2.39950457
  11.87694167 14.69390458  2.39950457
  14.42200060 13.22451412  2.39950457
  14.42200060 16.16329504  2.39950457
  16.96705953 14.69390458  2.39950457
  26.30076609 10.29084331  4.74973853
   8.48701555  8.80797300  4.75748736
   8.50117355 11.76560944  4.76782523
  11.01935916 10.28788166  4.76645055
  13.57570875  8.79881119  4.73697360
  13.58348222 11.76471519  4.75056675
   8.48818708 14.70046478  4.75874919
  11.03259733 13.22393821  4.76978218
  11.03217981 16.16344000  4.75879457
  13.57891031 14.70302480  4.75220621
  16.12753153 13.23740056  4.76027829
  16.12129666 16.16790497  4.76105492
   5.10340661  8.81606951  7.15898733
   7.65314356 10.28574512  7.11859235
  10.21943112 11.76119457  7.20276944
  10.19006089  8.78519050  7.15684819
  12.75564026 10.26992320  7.09645204
  15.29751028 11.77462002  7.16099446
  27.99958016 13.23836457  7.16180324
  10.18243218 14.70337453  7.16938468
  12.72743565 16.16654417  7.17179511
  12.75716347 13.23943818  7.15483928
  15.28074108 14.70756787  7.17569117
  17.81693579 16.16504688  7.16955542
  10.18023572  0.00000000  0.00000000
  12.72529465  1.46939046  0.00000000
  15.27035358  2.93878092  0.00000000
  15.27035358  0.00000000  0.00000000
  17.81541251  1.46939046  0.00000000
  20.36047144  2.93878092  0.00000000
  12.72529465  4.40817137  0.00000000
  15.27035358  5.87756183  0.00000000
  17.81541251  7.34695229  0.00000000
  17.81541251  4.40817137  0.00000000
  20.36047144  5.87756183  0.00000000
  22.90553036  7.34695229  0.00000000
  11.87694167  0.00000000  2.39950457
  11.87694167  2.93878092  2.39950457
  14.42200060  1.46939046  2.39950457
  16.96705953  0.00000000  2.39950457
  16.96705953  2.93878092  2.39950457
  19.51211846  1.46939046  2.39950457
  14.42200060  4.40817137  2.39950457
  14.42200060  7.34695229  2.39950457
  16.96705953  5.87756183  2.39950457
  19.51211846  4.40817137  2.39950457
  19.51211846  7.34695229  2.39950457
  22.05717739  5.87756183  2.39950457
  11.02761357  1.47172393  4.76140182
  13.57361176  0.00026411  4.76079531
  13.57109455  2.93700041  4.76162167
  16.11789425  1.46685995  4.76029018
  28.84377248 17.62946178  4.76173352
  18.67091080  2.92691164  4.75120963
  13.56883338  5.86882559  4.75156285
  16.12039046  4.39905747  4.75329691
  16.14265387  7.33613813  4.75112334
  18.67806345  5.87071993  4.75775839
  21.21361638  4.40472255  4.75782883
  21.21717102  7.34702776  4.75889518
  10.18160836  0.00102917  7.16615968
  12.72504093  1.47087457  7.17089498
  15.26651691  2.93601173  7.17409691
  15.26971145  0.00007474  7.17050433
  17.81235932  1.46345955  7.17322274
  20.36281349  2.93822530  7.17007453
  12.72442970  4.40553588  7.18195350
  15.26391036  5.88085573  7.12647431
  17.85769078  7.33418993  7.15612599
  17.81752056  4.38537508  7.13801669
  20.38798557  5.87133883  7.16666688
  22.92158010  7.34731137  7.17544117
  15.27035358  8.81634275  0.00000000
  17.81541251 10.28573321  0.00000000
  20.36047143 11.75512366  0.00000000
  20.36047144  8.81634275  0.00000000
  22.90553036 10.28573321  0.00000000
  25.45058929 11.75512366  0.00000000
  17.81541251 13.22451412  0.00000000
  20.36047144 14.69390458  0.00000000
  22.90553036 16.16329504  0.00000000
  22.90553036 13.22451412  0.00000000
  25.45058929 14.69390458  0.00000000
  27.99564822 16.16329504  0.00000000
  16.96705953  8.81634275  2.39950457
  16.96705953 11.75512366  2.39950457
  19.51211846 10.28573321  2.39950457
  22.05717739  8.81634275  2.39950457
  22.05717739 11.75512366  2.39950457
  24.60223632 10.28573321  2.39950457
  19.51211846 13.22451412  2.39950457
  19.51211846 16.16329504  2.39950457
  22.05717739 14.69390458  2.39950457
  24.60223632 13.22451412  2.39950457
  24.60223632 16.16329504  2.39950457
  27.14729525 14.69390458  2.39950457
  16.13403983 10.30314664  4.74733826
  18.67599019  8.81684655  4.76120893
  18.67448148 11.76108532  4.76003542
  21.21441148 10.28619661  4.75942037
  23.75688307  8.81512984  4.76019340
  23.75563808 11.75608141  4.76018487
  18.66853573 14.69934841  4.75960007
  21.21267184 13.22609549  4.76094646
  21.21058749 16.16500005  4.76064383
  23.75638734 14.69455085  4.76084381
  26.30302339 13.22756486  4.75590963
  26.30020414 16.16395226  4.76059877
  15.30609484  8.82401171  7.08162266
  17.84443652 10.29091539  7.16022327
  20.37710099 11.75400905  7.17025165
  20.38956605  8.81549861  7.16910164
  22.92711776 10.28781385  7.16820682
  25.46747590 11.75972349  7.16133043
  17.83307792 13.23090844  7.17179785
  20.36543561 14.69511378  7.16767303
  22.90773939 16.16430252  7.16824086
  22.91354022 13.22519083  7.16772031
  25.45082754 14.69714140  7.17040003
  27.99462992 16.16535091  7.17564555
  15.17256114 11.27063763 10.54641735
   7.37752663  9.60239153 10.57126222
   8.82386792  9.98304970 10.45801552
   9.23328814 11.29301315 10.21005747
  10.58474018 11.65526208 10.11801933
  11.59109579 10.68722155 10.36683485
  11.19824082  9.37091800 10.63377224
   9.83495240  9.00462171 10.63806398
  14.18120283 10.55167285 10.39003529
  16.67126358  8.79876518 10.31267332
  17.70132654  7.85100257 10.38632231
  17.47460734  6.47224687 10.41940020
  16.12970578  6.01882439 10.33779484
  15.08647696  6.95829188 10.24804791
  15.34352532  8.34143714 10.26020750
  18.59605039  5.49118880 10.58359996
   9.48947206  7.69570332 10.89639887
  12.91348040 11.14564043 10.35779176
  14.21654115  9.18590363 10.21805442
  15.84467077  4.66648659 10.41271803
   8.47196057 12.06511011 10.07684003
  10.86566210 12.70173586  9.98615207
  11.91654387  8.60902783 10.93211155
   8.55784182  7.40113609 10.62188780
  10.20203602  6.99110225 10.73736235
  13.01669413 12.15688473 10.30718061
   7.09690900  8.84094187  9.81748098
   6.72790459 10.47229313 10.40784258
   7.15167941  9.17514353 11.56313907
  13.37675961  8.75504148  9.83677332
  18.73277048  8.20542925 10.44117902
  14.05314564  6.60324449 10.21474766
  18.49435675  4.92671996 11.52597178
  18.61924754  4.74753321  9.76370765
  19.56834037  6.00190797 10.58431618
  16.59152169  4.03473357 10.13511232
  14.93749056  4.37729785 10.05446026
  16.88017180  9.86390901 10.32679750
 


--------------------------------------------------------------------------------------------------------


 k-point  1 :   0.0000 0.0000 0.0000  plane waves:  155667
 k-point  2 :   0.3333 0.0000 0.0000  plane waves:  155683
 k-point  3 :   0.0000 0.3333 0.0000  plane waves:  155683
 k-point  4 :   0.3333 0.3333 0.0000  plane waves:  155683
 k-point  5 :  -0.3333 0.3333 0.0000  plane waves:  155607

 maximum and minimum number of plane-waves per node :     38947    38880

 maximum number of plane-waves:    155683
 maximum index in each direction: 
   IXMAX=   35   IYMAX=   35   IZMAX=   34
   IXMIN=  -35   IYMIN=  -35   IZMIN=  -34


 real space projection operators:
  total allocation   :      58233.74 KBytes
  max/ min on nodes  :      14560.55      14555.12


 parallel 3D FFT for wavefunctions:
    minimum data exchange during FFTs selected (reduces bandwidth)
 parallel 3D FFT for charge:
    minimum data exchange during FFTs selected (reduces bandwidth)


 total amount of memory used by VASP MPI-rank0   460175. kBytes
=======================================================================

   base      :      30000. kBytes
   nonlr-proj:      26301. kBytes
   fftplans  :      17430. kBytes
   grid      :      31444. kBytes
   one-center:        902. kBytes
   wavefun   :     354098. kBytes
 
     INWAV:  cpu time    0.0000: real time    0.0003
 Broyden mixing: mesh for mixing (old mesh)
   NGX = 71   NGY = 71   NGZ = 69
  (NGX  =216   NGY  =216   NGZ  =216)
  gives a total of 347829 points

 initial charge density was supplied:
 charge density of overlapping atoms calculated
 number of electron    2216.0000000 magnetization 
 keeping initial charge density in first step


--------------------------------------------------------------------------------------------------------


 Maximum index for non-local projection operator          540
 Maximum index for augmentation-charges          527 (set IRDMAX)


--------------------------------------------------------------------------------------------------------


 First call to EWALD:  gamma=   0.092
 Maximum number of real-space cells 3x 3x 3
 Maximum number of reciprocal cells 3x 3x 3

    FEWALD:  cpu time    0.0641: real time    0.0641


--------------------------------------- Iteration      1(   1)  ---------------------------------------


    POTLOK:  cpu time    0.1853: real time    0.1972
    SETDIJ:  cpu time    0.0194: real time    0.0256
     EDDAV:  cpu time  155.6455: real time  155.7596
       DOS:  cpu time    0.0024: real time    0.0027
    --------------------------------------------
      LOOP:  cpu time  155.8526: real time  155.9851

 eigenvalue-minimisations  : 13344
 total energy-change (2. order) : 0.1403776E+05  (-0.9630630E+05)
 number of electron    2216.0000000 magnetization 
 augmentation part     2216.0000000 magnetization 

 DIPCOR: dipole corrections for dipol
 direction  3 min pos   157,
 dipolmoment           0.000000      0.000000     -0.028066 electrons x Angstroem
 Tr[quadrupol]   -159359.220571

 energy correction for charged system         0.000000 eV
 dipol+quadrupol energy correction           -0.000011 eV
 added-field ion interaction         -0.910105 eV  (added to PSCEN)


 Free energy of the ion-electron system (eV)
  ---------------------------------------------------
  alpha Z        PSCENC =      6416.13074260
  Ewald energy   TEWEN  =    321599.54609111
  -Hartree energ DENC   =   -514808.23366248
  -exchange      EXHF   =         0.00000000
  -V(xc)+E(xc)   XCENC  =      3280.43012141
  PAW double counting   =    170659.24423663  -166241.73297338
  entropy T*S    EENTRO =        -0.03515858
  eigenvalues    EBANDS =     11402.55209873
  atomic energy  EATOM  =    181729.85571703
  Solvation  Ediel_sol  =         0.00000000
  ---------------------------------------------------
  free energy    TOTEN  =     14037.75721307 eV

  energy without entropy =    14037.79237165  energy(sigma->0) =    14037.77479236


--------------------------------------------------------------------------------------------------------




--------------------------------------- Iteration      1(   2)  ---------------------------------------


     EDDAV:  cpu time  169.6336: real time  169.9121
       DOS:  cpu time    0.0022: real time    0.0021
    --------------------------------------------
      LOOP:  cpu time  169.6358: real time  169.9143

 eigenvalue-minimisations  : 14904
 total energy-change (2. order) :-0.1404682E+05  (-0.1309054E+05)
 number of electron    2216.0000000 magnetization 
 augmentation part     2216.0000000 magnetization 

 DIPCOR: dipole corrections for dipol
 direction  3 min pos   157,
 dipolmoment           0.000000      0.000000     -0.028066 electrons x Angstroem
 Tr[quadrupol]   -159359.220571

 energy correction for charged system         0.000000 eV
 dipol+quadrupol energy correction           -0.000011 eV
 added-field ion interaction         -0.910105 eV  (added to PSCEN)


 Free energy of the ion-electron system (eV)
  ---------------------------------------------------
  alpha Z        PSCENC =      6416.13074260
  Ewald energy   TEWEN  =    321599.54609111
  -Hartree energ DENC   =   -514808.23366248
  -exchange      EXHF   =         0.00000000
  -V(xc)+E(xc)   XCENC  =      3280.43012141
  PAW double counting   =    170659.24423663  -166241.73297338
  entropy T*S    EENTRO =        -0.03159459
  eigenvalues    EBANDS =     -2644.27293561
  atomic energy  EATOM  =    181729.85571703
  Solvation  Ediel_sol  =         0.00000000
  ---------------------------------------------------
  free energy    TOTEN  =        -9.06425728 eV

  energy without entropy =       -9.03266270  energy(sigma->0) =       -9.04845999


--------------------------------------------------------------------------------------------------------




--------------------------------------- Iteration      1(   3)  ---------------------------------------


     EDDAV:  cpu time  171.0956: real time  171.2273
       DOS:  cpu time    0.0019: real time    0.0019
    --------------------------------------------
      LOOP:  cpu time  171.0976: real time  171.2292

 eigenvalue-minimisations  : 15048
 total energy-change (2. order) :-0.8711308E+03  (-0.8307401E+03)
 number of electron    2216.0000000 magnetization 
 augmentation part     2216.0000000 magnetization 

 DIPCOR: dipole corrections for dipol
 direction  3 min pos   157,
 dipolmoment           0.000000      0.000000     -0.028066 electrons x Angstroem
 Tr[quadrupol]   -159359.220571

 energy correction for charged system         0.000000 eV
 dipol+quadrupol energy correction           -0.000011 eV
 added-field ion interaction         -0.910105 eV  (added to PSCEN)


 Free energy of the ion-electron system (eV)
  ---------------------------------------------------
  alpha Z        PSCENC =      6416.13074260
  Ewald energy   TEWEN  =    321599.54609111
  -Hartree energ DENC   =   -514808.23366248
  -exchange      EXHF   =         0.00000000
  -V(xc)+E(xc)   XCENC  =      3280.43012141
  PAW double counting   =    170659.24423663  -166241.73297338
  entropy T*S    EENTRO =        -0.02544512
  eigenvalues    EBANDS =     -3515.40989987
  atomic energy  EATOM  =    181729.85571703
  Solvation  Ediel_sol  =         0.00000000
  ---------------------------------------------------
  free energy    TOTEN  =      -880.19507206 eV

  energy without entropy =     -880.16962695  energy(sigma->0) =     -880.18234951


--------------------------------------------------------------------------------------------------------




--------------------------------------- Iteration      1(   4)  ---------------------------------------


     EDDAV:  cpu time  177.1357: real time  177.2553
       DOS:  cpu time    0.0019: real time    0.0019
    --------------------------------------------
      LOOP:  cpu time  177.1377: real time  177.2572

 eigenvalue-minimisations  : 15600
 total energy-change (2. order) :-0.2776819E+02  (-0.2739221E+02)
 number of electron    2216.0000000 magnetization 
 augmentation part     2216.0000000 magnetization 

 DIPCOR: dipole corrections for dipol
 direction  3 min pos   157,
 dipolmoment           0.000000      0.000000     -0.028066 electrons x Angstroem
 Tr[quadrupol]   -159359.220571

 energy correction for charged system         0.000000 eV
 dipol+quadrupol energy correction           -0.000011 eV
 added-field ion interaction         -0.910105 eV  (added to PSCEN)


 Free energy of the ion-electron system (eV)
  ---------------------------------------------------
  alpha Z        PSCENC =      6416.13074260
  Ewald energy   TEWEN  =    321599.54609111
  -Hartree energ DENC   =   -514808.23366248
  -exchange      EXHF   =         0.00000000
  -V(xc)+E(xc)   XCENC  =      3280.43012141
  PAW double counting   =    170659.24423663  -166241.73297338
  entropy T*S    EENTRO =        -0.02464452
  eigenvalues    EBANDS =     -3543.17889069
  atomic energy  EATOM  =    181729.85571703
  Solvation  Ediel_sol  =         0.00000000
  ---------------------------------------------------
  free energy    TOTEN  =      -907.96326229 eV

  energy without entropy =     -907.93861777  energy(sigma->0) =     -907.95094003


--------------------------------------------------------------------------------------------------------




--------------------------------------- Iteration      1(   5)  ---------------------------------------


     EDDAV:  cpu time  184.6328: real time  184.9098
       DOS:  cpu time    0.0019: real time    0.0019
    --------------------------------------------
      LOOP:  cpu time  184.6347: real time  184.9117

 eigenvalue-minimisations  : 16560
 total energy-change (2. order) :-0.1009784E+01  (-0.1006147E+01)
 number of electron    2216.0000000 magnetization 
 augmentation part     2216.0000000 magnetization 

 DIPCOR: dipole corrections for dipol
 direction  3 min pos   157,
 dipolmoment           0.000000      0.000000     -0.028066 electrons x Angstroem
 Tr[quadrupol]   -159359.220571

 energy correction for charged system         0.000000 eV
 dipol+quadrupol energy correction           -0.000011 eV
 added-field ion interaction         -0.910105 eV  (added to PSCEN)


 Free energy of the ion-electron system (eV)
  ---------------------------------------------------
  alpha Z        PSCENC =      6416.13074260
  Ewald energy   TEWEN  =    321599.54609111
  -Hartree energ DENC   =   -514808.23366248
  -exchange      EXHF   =         0.00000000
  -V(xc)+E(xc)   XCENC  =      3280.43012141
  PAW double counting   =    170659.24423663  -166241.73297338
  entropy T*S    EENTRO =        -0.02460339
  eigenvalues    EBANDS =     -3544.18871630
  atomic energy  EATOM  =    181729.85571703
  Solvation  Ediel_sol  =         0.00000000
  ---------------------------------------------------
  free energy    TOTEN  =      -908.97304677 eV

  energy without entropy =     -908.94844338  energy(sigma->0) =     -908.96074507


--------------------------------------------------------------------------------------------------------




--------------------------------------- Iteration      1(   6)  ---------------------------------------


     EDDAV:  cpu time  201.2690: real time  202.2000
       DOS:  cpu time    0.0021: real time    0.0021
    --------------------------------------------
      LOOP:  cpu time  201.2711: real time  202.2021

[...]
     20.36047     11.75512      0.00000        -0.002565     -0.002234     -0.012206
     20.36047      8.81634      0.00000         0.002807      0.001529     -0.012453
     22.90553     10.28573      0.00000         0.002890     -0.000049     -0.009774
     25.45059     11.75512      0.00000        -0.004749     -0.000278     -0.010392
     17.81541     13.22451      0.00000        -0.003322      0.000427     -0.009590
     20.36047     14.69390      0.00000        -0.003804     -0.002606     -0.010695
     22.90553     16.16330      0.00000        -0.000680     -0.003949     -0.015988
     22.90553     13.22451      0.00000         0.003658     -0.002600     -0.014301
     25.45059     14.69390      0.00000         0.005741     -0.002420     -0.013639
     27.99565     16.16330      0.00000        -0.003912      0.000054     -0.010277
     16.96706      8.81634      2.39950         0.003338     -0.004068      0.009716
     16.96706     11.75512      2.39950         0.003513      0.014728      0.002500
     19.51212     10.28573      2.39950        -0.004019     -0.006187      0.022686
     22.05718      8.81634      2.39950         0.004563     -0.002222      0.014587
     22.05718     11.75512      2.39950         0.006699      0.006028      0.014315
     24.60224     10.28573      2.39950        -0.010886     -0.001324      0.012557
     19.51212     13.22451      2.39950         0.001352      0.006035      0.017812
     19.51212     16.16330      2.39950         0.005279      0.006312      0.016097
     22.05718     14.69390      2.39950         0.004700      0.001794      0.023959
     24.60224     13.22451      2.39950        -0.010889      0.004614      0.019677
     24.60224     16.16330      2.39950        -0.000119      0.001008      0.026161
     27.14730     14.69390      2.39950        -0.000472      0.002305      0.020168
     16.13404     10.30315      4.74734         0.003257     -0.006300     -0.001783
     18.67599      8.81685      4.76121        -0.006566      0.003232      0.004011
     18.67448     11.76109      4.76004        -0.003524      0.003993      0.001030
     21.21441     10.28620      4.75942         0.005496      0.004142      0.000815
     23.75688      8.81513      4.76019        -0.003880      0.007023     -0.004218
     23.75564     11.75608      4.76018        -0.002433      0.000694     -0.002083
     18.66854     14.69935      4.75960        -0.001883     -0.005794      0.002546
     21.21267     13.22610      4.76095         0.001320     -0.000424     -0.002360
     21.21059     16.16500      4.76064         0.001026      0.000090     -0.000596
     23.75639     14.69455      4.76084         0.001825     -0.000598     -0.002248
     26.30302     13.22756      4.75591        -0.000461      0.001940      0.003698
     26.30020     16.16395      4.76060        -0.002735     -0.001522      0.001887
     15.30609      8.82401      7.08162        -0.003357      0.000160      0.010774
     17.84444     10.29092      7.16022        -0.006154     -0.001191     -0.001087
     20.37710     11.75401      7.17025         0.001141      0.002381      0.001359
     20.38957      8.81550      7.16910         0.002903     -0.003513      0.000154
     22.92712     10.28781      7.16821        -0.003861      0.002849     -0.001561
     25.46748     11.75972      7.16133        -0.000627     -0.002514      0.002886
     17.83308     13.23091      7.17180        -0.003112     -0.000888     -0.007289
     20.36544     14.69511      7.16767         0.003546      0.006613      0.003471
     22.90774     16.16430      7.16824        -0.003838     -0.002366     -0.003806
     22.91354     13.22519      7.16772         0.000203     -0.002421      0.002687
     25.45083     14.69714      7.17040         0.000884     -0.005435      0.003334
     27.99463     16.16535      7.17565         0.003416     -0.000205     -0.001300
     15.17256     11.27064     10.54642         0.016450      0.005087      0.001005
      7.37753      9.60239     10.57126        -0.009087     -0.004230     -0.018236
      8.82387      9.98305     10.45802        -0.002214     -0.001085     -0.003743
      9.23329     11.29301     10.21006        -0.000270      0.005007     -0.002286
     10.58474     11.65526     10.11802        -0.005363     -0.004623     -0.005536
     11.59110     10.68722     10.36683        -0.013370      0.003007      0.002320
     11.19824      9.37092     10.63377         0.009000     -0.001816     -0.010767
      9.83495      9.00462     10.63806        -0.002455      0.003337     -0.007278
     14.18120     10.55167     10.39004        -0.039436      0.019194     -0.004457
     16.67126      8.79877     10.31267        -0.005642      0.000615      0.003238
     17.70133      7.85100     10.38632        -0.012623      0.002179      0.005321
     17.47461      6.47225     10.41940        -0.010408      0.012338     -0.011911
     16.12971      6.01882     10.33779        -0.025613      0.026726     -0.000589
     15.08648      6.95829     10.24805         0.002652      0.000264     -0.003639
     15.34353      8.34144     10.26021         0.010163     -0.010605      0.005177
     18.59605      5.49119     10.58360         0.004803      0.009439      0.026772
      9.48947      7.69570     10.89640        -0.011010      0.003207      0.008170
     12.91348     11.14564     10.35779        -0.006418     -0.007873     -0.004469
     14.21654      9.18590     10.21805         0.014737     -0.007834     -0.005123
     15.84467      4.66649     10.41272         0.023451      0.012812     -0.000089
      8.47196     12.06511     10.07684         0.008156     -0.006525     -0.000242
     10.86566     12.70174      9.98615        -0.004062     -0.004784     -0.008671
     11.91654      8.60903     10.93211        -0.013072     -0.008250     -0.002497
      8.55784      7.40114     10.62189        -0.007396     -0.003791     -0.001998
     10.20204      6.99110     10.73736        -0.004884     -0.005783     -0.006606
     13.01669     12.15688     10.30718         0.002914      0.001459     -0.000529
      7.09691      8.84094      9.81748        -0.008966      0.008355      0.003145
      6.72790     10.47229     10.40784        -0.006443      0.000008      0.003436
      7.15168      9.17514     11.56314        -0.004457      0.006808      0.008224
     13.37676      8.75504      9.83677        -0.007281     -0.004535     -0.001093
     18.73277      8.20543     10.44118         0.003543      0.000540     -0.000427
     14.05315      6.60324     10.21475         0.012177     -0.006249     -0.003316
     18.49436      4.92672     11.52597         0.002339     -0.011039      0.003883
     18.61925      4.74753      9.76371         0.002558     -0.006412     -0.014706
     19.56834      6.00191     10.58432        -0.004584     -0.001714     -0.004644
     16.59152      4.03473     10.13511        -0.008949     -0.021247      0.000514
     14.93749      4.37730     10.05446         0.003686     -0.005081     -0.007185
     16.88017      9.86391     10.32680        -0.003341      0.006942     -0.003972
 -----------------------------------------------------------------------------------
    total drift:                               -0.021010     -0.026232      0.221562


--------------------------------------------------------------------------------------------------------



  FREE ENERGIE OF THE ION-ELECTRON SYSTEM (eV)
  ---------------------------------------------------
  free  energy   TOTEN  =      -847.40959058 eV

  energy  without entropy=     -847.33440425  energy(sigma->0) =     -847.37199741
 


--------------------------------------------------------------------------------------------------------


    POTLOK:  cpu time    0.2191: real time    0.2193


--------------------------------------------------------------------------------------------------------




--------------------------------------------------------------------------------------------------------


    WAVPRE:  cpu time    0.1803: real time    0.1876
    FEWALD:  cpu time    0.0093: real time    0.0093

 real space projection operators:
  total allocation   :      58234.48 KBytes
  max/ min on nodes  :      14560.78      14555.38

    ORTHCH:  cpu time   17.0877: real time   17.0944
     LOOP+:  cpu time 3645.0717: real time 3653.2368


--------------------------------------- Iteration      2(   1)  ---------------------------------------


    POTLOK:  cpu time    0.1756: real time    0.1764
    SETDIJ:  cpu time    0.0178: real time    0.0178
     EDDAV:  cpu time  157.8053: real time  157.8893
       DOS:  cpu time    0.0020: real time    0.0020
    CHARGE:  cpu time    7.0264: real time    7.0309
    MIXING:  cpu time    0.0053: real time    0.0053
    --------------------------------------------
      LOOP:  cpu time  165.0325: real time  165.1217

 eigenvalue-minimisations  : 13608
 total energy-change (2. order) :-0.1494276E-03  (-0.9320934E-03)
 number of electron    2215.9997705 magnetization 
 augmentation part      777.1983657 magnetization 

 DIPCOR: dipole corrections for dipol
 direction  3 min pos   156,
 dipolmoment           0.000000      0.000000     -0.525983 electrons x Angstroem
 Tr[quadrupol]   -159356.405431

 energy correction for charged system         0.000000 eV
 dipol+quadrupol energy correction           -0.003728 eV
 added-field ion interaction        -14.147346 eV  (added to PSCEN)


  free energy =  -0.828920618079E+03  energy without entropy=  -0.828845421732E+03


--------------------------------------------------------------------------------------------------------




--------------------------------------- Iteration      2(   2)  ---------------------------------------


    POTLOK:  cpu time    0.1779: real time    0.1787
    SETDIJ:  cpu time    0.0177: real time    0.0177
    EDDIAG:  cpu time   28.1323: real time   28.1483
  RMM-DIIS:  cpu time   61.0279: real time   61.0608
    ORTHCH:  cpu time    8.3511: real time    8.3546
       DOS:  cpu time    0.0020: real time    0.0020
    CHARGE:  cpu time    7.0820: real time    7.0857
    MIXING:  cpu time    0.0059: real time    0.0059
    --------------------------------------------
      LOOP:  cpu time  104.7968: real time  104.8536

 eigenvalue-minimisations  : 13084
 total energy-change (2. order) :-0.2288661E-04  (-0.2418200E-04)
 number of electron    2215.9997705 magnetization 
 augmentation part      777.1982048 magnetization 

 DIPCOR: dipole corrections for dipol
 direction  3 min pos   156,
 dipolmoment           0.000000      0.000000     -0.525608 electrons x Angstroem
 Tr[quadrupol]   -159356.405049

 energy correction for charged system         0.000000 eV
 dipol+quadrupol energy correction           -0.003723 eV
 added-field ion interaction        -14.137262 eV  (added to PSCEN)


 eigenvalues of (default mixing * dielectric matrix)
  average eigenvalue GAMMA=   0.8366
  0.8366

  free energy =  -0.828920640966E+03  energy without entropy=  -0.828845447767E+03


--------------------------------------------------------------------------------------------------------




--------------------------------------- Iteration      2(   3)  ---------------------------------------


    POTLOK:  cpu time    0.1752: real time    0.1756
    SETDIJ:  cpu time    0.0180: real time    0.0180
    EDDIAG:  cpu time   28.1534: real time   28.1708
  RMM-DIIS:  cpu time   37.6378: real time   37.6600
    ORTHCH:  cpu time    8.3472: real time    8.3507
       DOS:  cpu time    0.0021: real time    0.0021
    CHARGE:  cpu time    7.0490: real time    7.0519
    MIXING:  cpu time    0.0059: real time    0.0059
    --------------------------------------------
      LOOP:  cpu time   81.3887: real time   81.4350

 eigenvalue-minimisations  :  7519
 total energy-change (2. order) : 0.1205655E-05  (-0.8777482E-06)
 number of electron    2215.9997705 magnetization 
 augmentation part      777.1981978 magnetization 

 DIPCOR: dipole corrections for dipol
 direction  3 min pos   156,
 dipolmoment           0.000000      0.000000     -0.526364 electrons x Angstroem
 Tr[quadrupol]   -159356.403614

 energy correction for charged system         0.000000 eV
 dipol+quadrupol energy correction           -0.003734 eV
 added-field ion interaction        -14.157601 eV  (added to PSCEN)


 eigenvalues of (default mixing * dielectric matrix)
  average eigenvalue GAMMA=   1.1309
  1.1309  1.1309

  free energy =  -0.828920639760E+03  energy without entropy=  -0.828845445207E+03


--------------------------------------------------------------------------------------------------------




--------------------------------------- Iteration      2(   4)  ---------------------------------------


    POTLOK:  cpu time    0.1778: real time    0.1794
    SETDIJ:  cpu time    0.0179: real time    0.0179
    EDDIAG:  cpu time   28.1694: real time   28.1829
  RMM-DIIS:  cpu time   36.6828: real time   36.6992
    ORTHCH:  cpu time    8.4114: real time    8.4144
       DOS:  cpu time    0.0021: real time    0.0021
    CHARGE:  cpu time    7.0483: real time    7.0513
    MIXING:  cpu time    0.0064: real time    0.0064
    --------------------------------------------
      LOOP:  cpu time   80.5161: real time   80.5536

 eigenvalue-minimisations  :  7380
 total energy-change (2. order) :-0.3436144E-05  (-0.4907941E-06)
 number of electron    2215.9997705 magnetization 
 augmentation part      777.1982940 magnetization 

 DIPCOR: dipole corrections for dipol
 direction  3 min pos   156,
 dipolmoment           0.000000      0.000000     -0.524115 electrons x Angstroem
 Tr[quadrupol]   -159356.406030

 energy correction for charged system         0.000000 eV
 dipol+quadrupol energy correction           -0.003702 eV
 added-field ion interaction        -14.097117 eV  (added to PSCEN)


 eigenvalues of (default mixing * dielectric matrix)
  average eigenvalue GAMMA=   1.0704
  1.9273  1.0182  0.2658

  free energy =  -0.828920643196E+03  energy without entropy=  -0.828845452259E+03


--------------------------------------------------------------------------------------------------------




--------------------------------------- Iteration      2(   5)  ---------------------------------------


    POTLOK:  cpu time    0.1732: real time    0.1751
    SETDIJ:  cpu time    0.0180: real time    0.0180
    EDDIAG:  cpu time   27.9388: real time   28.1463
  RMM-DIIS:  cpu time   36.3191: real time   36.6289
    ORTHCH:  cpu time    8.3353: real time    8.3566
       DOS:  cpu time    0.0021: real time    0.0021
    --------------------------------------------
      LOOP:  cpu time   72.7864: real time   73.3269

 eigenvalue-minimisations  :  7261
 total energy-change (2. order) : 0.2335466E-05  (-0.3466735E-06)
 number of electron    2215.9997705 magnetization 
 augmentation part      777.1982940 magnetization 

 DIPCOR: dipole corrections for dipol
 direction  3 min pos   156,
 dipolmoment           0.000000      0.000000     -0.525778 electrons x Angstroem
 Tr[quadrupol]   -159356.403086

 energy correction for charged system         0.000000 eV
 dipol+quadrupol energy correction           -0.003725 eV
 added-field ion interaction        -14.141850 eV  (added to PSCEN)


  free energy =  -0.828920640861E+03  energy without entropy=  -0.828845448336E+03


--------------------------------------------------------------------------------------------------------




------------------------ aborting loop because EDIFF is reached ----------------------------------------


    CHARGE:  cpu time    7.0547: real time    7.0599
    FORLOC:  cpu time    0.2136: real time    0.2136
    FORNL :  cpu time   26.1897: real time   26.2065
    STRESS:  cpu time   77.4000: real time   77.9936
    FORCOR:  cpu time    0.3531: real time    0.3534
    FORHAR:  cpu time    0.2513: real time    0.2513
    MIXING:  cpu time    0.0063: real time    0.0064
    OFIELD:  cpu time    0.0001: real time    0.0001

  Number of pair interactions contributing to vdW energy:  977738
  Edisp (eV):  -18.48910
    FORVDW:  cpu time    0.1416: real time    0.1416

  FORCE on cell =-STRESS in cart. coord.  units (eV):
  Direction    XX          YY          ZZ          XY          YZ          ZX
  --------------------------------------------------------------------------------------
  Alpha Z  6417.04086  6417.04086  6417.04086
  Ewald  442555.96722440054.89256************ -1234.76308  -304.36367    93.37974
  Hartree492822.06330490488.62977************ -1196.29827  -205.82712    13.62687
  E(xc)   -9875.72949 -9876.08182 -9922.01627     0.17420    -0.39828     0.51304
  Local  ************************990909.06682  2445.34385   507.26471   -90.15074
  n-local  -482.70081  -483.11013  -363.70592    -1.26342     0.12226     0.03289
  augment 12991.53246 12991.63021 13071.60296    -0.89351    -0.10924    -0.10333
  Kinetic 30901.48054 30907.13978 31397.81985   -12.45608     3.35917   -17.86096
  Fock        0.00000     0.00000     0.00000     0.00000     0.00000     0.00000
  vdW       -24.64164   -24.52092   -20.35581     0.07352     0.01124     0.04018
  -------------------------------------------------------------------------------------
  Total    -124.13899  -124.31769    -3.56415    -0.08279     0.05909    -0.52229
  in kB     -27.70017   -27.74005    -0.79530    -0.01847     0.01319    -0.11654
  external pressure =      -18.75 kB  Pullay stress =        0.00 kB



--------------------------------------------------------------------------------------------------------



  FREE ENERGIE OF THE ION-ELECTRON SYSTEM (eV)
  ---------------------------------------------------
  free  energy   TOTEN  =      -847.40974496 eV

  energy  without entropy=     -847.33455243  energy(sigma->0) =     -847.37214870
 
 d Force = 0.1388446E-03[ 0.794E-04, 0.198E-03]  d Energy = 0.1543803E-03-0.155E-04
 d Force =-0.3631909E+00[-0.363E+00,-0.363E+00]  d Ewald  =-0.3631915E+00 0.650E-06


--------------------------------------------------------------------------------------------------------


    POTLOK:  cpu time    0.2125: real time    0.2129


--------------------------------------------------------------------------------------------------------


 Steepest descent step on ions:
 trial-energy change:   -0.000154  1 .order   -0.000139   -0.000198   -0.000079
  (g-gl).g = 0.198E-03      g.g   = 0.198E-03  gl.gl    = 0.000E+00
 g(Force)  = 0.198E-03   g(Stress)= 0.000E+00 ortho     = 0.000E+00
 gamma     =   0.00000
 trial     =   1.00000
 opt step  =   1.66736  (harmonic =   1.66736) maximal distance =0.00064604
 next E    =  -847.409756   (d E  =  -0.00017)


--------------------------------------------------------------------------------------------------------


  
 reached required accuracy - stopping structural energy minimisation
     LOOP+:  cpu time  616.4271: real time  617.8151
    4ORBIT:  cpu time    0.0000: real time    0.0000

 total amount of memory used by VASP MPI-rank0   460175. kBytes
=======================================================================

   base      :      30000. kBytes
   nonlr-proj:      26301. kBytes
   fftplans  :      17430. kBytes
   grid      :      31444. kBytes
   one-center:        902. kBytes
   wavefun   :     354098. kBytes
 
  
  
 General timing and accounting informations for this job:
 ========================================================
  
                  Total CPU time used (sec):     4360.540
                            User time (sec):     4223.037
                          System time (sec):      137.503
                         Elapsed time (sec):     4370.606
  
                   Maximum memory used (kb):      641716.
                   Average memory used (kb):           0.
  
                          Minor page faults:        65633
                          Major page faults:            0
                 Voluntary context switches:         4330
