 vasp.5.4.4.18Apr17-6-g9f103f2a35 (build Jun 30 2017 19:19:18) complex          
  
 executed on         MareNostrum4 date 2022.04.19  22:26:08
 running on   48 total cores
 distrk:  each k-point on   48 cores,    1 groups
 distr:  one band on NCORES_PER_BAND=   1 cores,   48 groups


--------------------------------------------------------------------------------------------------------


 INCAR:
 POTCAR:    PAW_PBE Ni 02Aug2007                  
 POTCAR:    PAW_PBE C 08Apr2002                   
 POTCAR:    PAW_PBE H 15Jun2001                   
 POTCAR:    PAW_PBE O 08Apr2002                   

 ----------------------------------------------------------------------------- 
|                                                                             |
|           W    W    AA    RRRRR   N    N  II  N    N   GGGG   !!!           |
|           W    W   A  A   R    R  NN   N  II  NN   N  G    G  !!!           |
|           W    W  A    A  R    R  N N  N  II  N N  N  G       !!!           |
|           W WW W  AAAAAA  RRRRR   N  N N  II  N  N N  G  GGG   !            |
|           WW  WW  A    A  R   R   N   NN  II  N   NN  G    G                |
|           W    W  A    A  R    R  N    N  II  N    N   GGGG   !!!           |
|                                                                             |
|      For optimal performance we recommend to set                            |
|        NCORE= 4 - approx SQRT( number of cores)                             |
|      NCORE specifies how many cores store one orbital (NPAR=cpu/NCORE).     |
|      This setting can  greatly improve the performance of VASP for DFT.     |
|      The default,   NCORE=1            might be grossly inefficient         |
|      on modern multi-core architectures or massively parallel machines.     |
|      Do your own testing !!!!                                               |
|      Unfortunately you need to use the default for GW and RPA calculations. |
|      (for HF NCORE is supported but not extensively tested yet)             |
|                                                                             |
 ----------------------------------------------------------------------------- 

 POTCAR:    PAW_PBE Ni 02Aug2007                  
  local pseudopotential read in
  partial core-charges read in
  partial kinetic energy density read in
  atomic valenz-charges read in
  non local Contribution for L=           2  read in
    real space projection operators read in
  non local Contribution for L=           2  read in
    real space projection operators read in
  non local Contribution for L=           0  read in
    real space projection operators read in
  non local Contribution for L=           0  read in
    real space projection operators read in
  non local Contribution for L=           1  read in
    real space projection operators read in
  non local Contribution for L=           1  read in
    real space projection operators read in
    PAW grid and wavefunctions read in
 
   number of l-projection  operators is LMAX  =           6
   number of lm-projection operators is LMMAX =          18
 
 POTCAR:    PAW_PBE C 08Apr2002                   
  local pseudopotential read in
  partial core-charges read in
  partial kinetic energy density read in
  atomic valenz-charges read in
  non local Contribution for L=           0  read in
    real space projection operators read in
  non local Contribution for L=           0  read in
    real space projection operators read in
  non local Contribution for L=           1  read in
    real space projection operators read in
  non local Contribution for L=           1  read in
    real space projection operators read in
    PAW grid and wavefunctions read in
 
   number of l-projection  operators is LMAX  =           4
   number of lm-projection operators is LMMAX =           8
 
 POTCAR:    PAW_PBE H 15Jun2001                   
  local pseudopotential read in
  atomic valenz-charges read in
  non local Contribution for L=           0  read in
    real space projection operators read in
  non local Contribution for L=           0  read in
    real space projection operators read in
  non local Contribution for L=           1  read in
    real space projection operators read in
    PAW grid and wavefunctions read in
 
   number of l-projection  operators is LMAX  =           3
   number of lm-projection operators is LMMAX =           5
 
 POTCAR:    PAW_PBE O 08Apr2002                   
  local pseudopotential read in
  partial core-charges read in
  partial kinetic energy density read in
  kinetic energy density of atom read in
  atomic valenz-charges read in
  non local Contribution for L=           0  read in
    real space projection operators read in
  non local Contribution for L=           0  read in
    real space projection operators read in
  non local Contribution for L=           1  read in
    real space projection operators read in
  non local Contribution for L=           1  read in
    real space projection operators read in
    PAW grid and wavefunctions read in
 
   number of l-projection  operators is LMAX  =           4
   number of lm-projection operators is LMMAX =           8
 
 Optimization of the real space projectors (new method)

 maximal supplied QI-value         = 16.25
 optimisation between [QCUT,QGAM] = [ 10.73, 21.61] = [ 32.22,130.83] Ry 
 Optimized for a Real-space Cutoff    1.34 Angstroem

   l    n(q)    QCUT    max X(q) W(low)/X(q) W(high)/X(q)  e(spline) 
   2      8    10.726    60.317    0.47E-03    0.39E-03    0.97E-07
   2      8    10.726    55.921    0.48E-03    0.39E-03    0.10E-06
   0      9    10.726    51.690    0.35E-03    0.32E-03    0.97E-07
   0      9    10.726    30.015    0.31E-03    0.29E-03    0.88E-07
   1      8    10.726    18.849    0.34E-03    0.47E-04    0.17E-06
   1      8    10.726    14.624    0.29E-03    0.31E-04    0.15E-06
 Optimization of the real space projectors (new method)

 maximal supplied QI-value         = 25.13
 optimisation between [QCUT,QGAM] = [ 10.81, 21.61] = [ 32.71,130.83] Ry 
 Optimized for a Real-space Cutoff    1.23 Angstroem

   l    n(q)    QCUT    max X(q) W(low)/X(q) W(high)/X(q)  e(spline) 
   0      8    10.807   115.676    0.36E-03    0.72E-03    0.24E-06
   0      8    10.807    87.132    0.35E-03    0.71E-03    0.24E-06
   1      7    10.807     4.429    0.19E-03    0.39E-03    0.11E-06
   1      7    10.807     2.733    0.14E-03    0.28E-03    0.13E-06
 Optimization of the real space projectors (new method)

 maximal supplied QI-value         = 34.20
 optimisation between [QCUT,QGAM] = [ 10.60, 21.55] = [ 31.48,130.03] Ry 
 Optimized for a Real-space Cutoff    1.23 Angstroem

   l    n(q)    QCUT    max X(q) W(low)/X(q) W(high)/X(q)  e(spline) 
   0      8    10.603    19.460    0.37E-03    0.59E-03    0.23E-06
   0      8    10.603    12.209    0.35E-03    0.56E-03    0.22E-06
   1      7    10.603     4.655    0.70E-04    0.28E-03    0.29E-06
 Optimization of the real space projectors (new method)

 maximal supplied QI-value         = 24.76
 optimisation between [QCUT,QGAM] = [ 10.64, 21.54] = [ 31.73,129.89] Ry 
 Optimized for a Real-space Cutoff    1.23 Angstroem

   l    n(q)    QCUT    max X(q) W(low)/X(q) W(high)/X(q)  e(spline) 
   0      8    10.645    20.381    0.38E-03    0.60E-03    0.15E-06
   0      8    10.645    15.268    0.40E-03    0.65E-03    0.17E-06
   1      7    10.645     5.964    0.30E-03    0.63E-03    0.18E-06
   1      7    10.645     5.382    0.24E-03    0.53E-03    0.16E-06
  PAW_PBE Ni 02Aug2007                  :
 energy of atom  1       EATOM=-1077.6739
 kinetic energy error for atom=    0.0038 (will be added to EATOM!!)
  PAW_PBE C 08Apr2002                   :
 energy of atom  2       EATOM= -147.1560
 kinetic energy error for atom=    0.0116 (will be added to EATOM!!)
  PAW_PBE H 15Jun2001                   :
 energy of atom  3       EATOM=  -12.4884
 kinetic energy error for atom=    0.0045 (will be added to EATOM!!)
  PAW_PBE O 08Apr2002                   :
 energy of atom  4       EATOM= -432.3788
 kinetic energy error for atom=    0.0389 (will be added to EATOM!!)
 
 
 POSCAR: Ni  C  H  O                             
  positions in cartesian coordinates
  No initial velocities read in
 exchange correlation table for  LEXCH =        8
   RHO(1)=    0.500       N(1)  =     2000
   RHO(2)=  100.500       N(2)  =     4000
 


--------------------------------------------------------------------------------------------------------


 ion  position               nearest neighbor table
   1  0.000  0.250  0.190-  90 2.20  30 2.46  53 2.46  54 2.46   2 2.49   4 2.49  28 2.49   6 2.49
                            25 2.49   5 2.49
   2  0.000  0.500  0.190-  31 2.46  54 2.46  55 2.46   3 2.49   1 2.49  25 2.49   7 2.49  26 2.49
                             6 2.49
   3  0.000  0.750  0.190-  32 2.46  55 2.46  56 2.46   4 2.49   2 2.49  26 2.49   8 2.49  27 2.49
                             7 2.49
   4  0.000  1.000  0.190-  29 2.46  56 2.46  53 2.46   3 2.49   1 2.49  27 2.49   5 2.49  28 2.49
                             8 2.49
   5  0.143  0.250  0.190-  86 2.16  85 2.23  34 2.46  29 2.46  30 2.46   8 2.49   6 2.49  10 2.49
                             4 2.49   9 2.49   1 2.49
   6  0.143  0.500  0.190-  89 2.09  88 2.11  35 2.46  30 2.46  31 2.46   7 2.49   5 2.49  11 2.49
                             1 2.49  10 2.49   2 2.49
   7  0.143  0.750  0.190-  36 2.46  31 2.46  32 2.46   8 2.49   6 2.49  12 2.49   2 2.49  11 2.49
                             3 2.49
   8  0.143  1.000  0.190-  33 2.46  32 2.46  29 2.46   7 2.49   5 2.49   9 2.49   3 2.49  12 2.49
                             4 2.49
   9  0.286  0.250  0.190-  38 2.46  33 2.46  34 2.46  12 2.49  10 2.49   8 2.49  14 2.49   5 2.49
                            13 2.49
  10  0.286  0.500  0.190-  87 2.03  92 2.15  39 2.46  34 2.46  35 2.46  11 2.49   9 2.49   5 2.49
                            15 2.49   6 2.49  14 2.49
  11  0.286  0.750  0.190-  40 2.46  35 2.46  36 2.46  12 2.49  10 2.49   6 2.49  16 2.49   7 2.49
                            15 2.49
  12  0.286  1.000  0.190-  37 2.46  36 2.46  33 2.46  11 2.49   9 2.49   7 2.49  13 2.49   8 2.49
                            16 2.49
  13  0.429  0.250  0.190-  42 2.46  37 2.46  38 2.46  16 2.49  14 2.49  18 2.49  12 2.49   9 2.49
                            17 2.49
  14  0.429  0.500  0.190-  93 2.05  43 2.46  38 2.46  39 2.46  13 2.49  15 2.49   9 2.49  19 2.49
                            18 2.49  10 2.49
  15  0.429  0.750  0.190-  44 2.46  39 2.46  40 2.46  16 2.49  14 2.49  20 2.49  10 2.49  11 2.49
                            19 2.49
  16  0.429  1.000  0.190-  41 2.46  40 2.46  37 2.46  15 2.49  13 2.49  17 2.49  11 2.49  20 2.49
                            12 2.49
  17  0.571  0.250  0.190-  46 2.46  41 2.46  42 2.46  20 2.49  18 2.49  22 2.49  16 2.49  21 2.49
                            13 2.49
  18  0.571  0.500  0.190-  47 2.46  42 2.46  43 2.46  19 2.49  17 2.49  23 2.49  13 2.49  22 2.49
                            14 2.49
  19  0.571  0.750  0.190- 109 2.18  48 2.46  43 2.46  44 2.46  18 2.49  20 2.49  24 2.49  14 2.49
                            23 2.49  15 2.49
  20  0.571  1.000  0.190-  45 2.46  44 2.46  41 2.46  19 2.49  17 2.49  21 2.49  15 2.49  24 2.49
                            16 2.49
  21  0.714  0.250  0.190-  50 2.46  45 2.46  46 2.46  24 2.49  22 2.49  20 2.49  26 2.49  17 2.49
                            25 2.49
  22  0.714  0.500  0.190-  51 2.46  46 2.46  47 2.46  23 2.49  21 2.49  17 2.49  27 2.49  18 2.49
                            26 2.49
  23  0.714  0.750  0.190-  52 2.46  47 2.46  48 2.46  24 2.49  22 2.49  18 2.49  28 2.49  19 2.49
                            27 2.49
  24  0.714  1.000  0.190-  49 2.46  48 2.46  45 2.46  23 2.49  21 2.49  19 2.49  25 2.49  20 2.49
                            28 2.49
  25  0.857  0.250  0.190-  54 2.46  49 2.46  50 2.46  28 2.49  26 2.49   2 2.49  24 2.49   1 2.49
                            21 2.49
  26  0.857  0.500  0.190-  55 2.46  50 2.46  51 2.46  27 2.49  25 2.49   3 2.49  21 2.49   2 2.49
                            22 2.49
  27  0.857  0.750  0.190-  56 2.46  51 2.46  52 2.46  28 2.49  26 2.49   4 2.49  22 2.49   3 2.49
                            23 2.49
  28  0.857  1.000  0.190-  53 2.46  52 2.46  49 2.46  27 2.49  25 2.49   1 2.49  23 2.49   4 2.49
                            24 2.49
  29  0.095  0.083  0.095-   4 2.46   5 2.46   8 2.46  60 2.46  57 2.46  61 2.46  32 2.49  30 2.49
                            34 2.49  56 2.49  33 2.49  53 2.49
  30  0.095  0.333  0.095-   1 2.46   6 2.46   5 2.46  57 2.46  58 2.46  62 2.46  31 2.49  29 2.49
                            35 2.49  53 2.49  34 2.49  54 2.49
  31  0.095  0.583  0.095-   2 2.46   7 2.46   6 2.46  58 2.46  59 2.46  63 2.46  32 2.49  30 2.49
                            36 2.49  54 2.49  35 2.49  55 2.49
  32  0.095  0.833  0.095-   3 2.46   8 2.46   7 2.46  59 2.46  60 2.46  64 2.46  31 2.49  29 2.49
                            33 2.49  55 2.49  36 2.49  56 2.49
  33  0.238  0.083  0.095-   8 2.46   9 2.46  12 2.46  64 2.46  61 2.46  65 2.46  36 2.49  34 2.49
                            32 2.49  38 2.49  29 2.49  37 2.49
  34  0.238  0.333  0.095-   5 2.46  10 2.46   9 2.46  61 2.46  62 2.46  66 2.46  35 2.49  33 2.49
                            29 2.49  39 2.49  30 2.49  38 2.49
  35  0.238  0.583  0.095-   6 2.46  11 2.46  10 2.46  62 2.46  63 2.46  67 2.46  36 2.49  34 2.49
                            30 2.49  40 2.49  31 2.49  39 2.49
  36  0.238  0.833  0.095-   7 2.46  12 2.46  11 2.46  63 2.46  64 2.46  68 2.46  35 2.49  33 2.49
                            31 2.49  37 2.49  32 2.49  40 2.49
  37  0.381  0.083  0.095-  12 2.46  13 2.46  16 2.46  68 2.46  65 2.46  69 2.46  40 2.49  38 2.49
                            42 2.49  36 2.49  33 2.49  41 2.49
  38  0.381  0.333  0.095-   9 2.46  14 2.46  13 2.46  65 2.46  66 2.46  70 2.46  39 2.49  37 2.49
                            43 2.49  33 2.49  34 2.49  42 2.49
  39  0.381  0.583  0.095-  10 2.46  15 2.46  14 2.46  66 2.46  67 2.46  71 2.46  40 2.49  38 2.49
                            44 2.49  34 2.49  35 2.49  43 2.49
  40  0.381  0.833  0.095-  11 2.46  16 2.46  15 2.46  67 2.46  68 2.46  72 2.46  39 2.49  37 2.49
                            41 2.49  35 2.49  44 2.49  36 2.49
  41  0.524  0.083  0.095-  16 2.46  17 2.46  20 2.46  72 2.46  69 2.46  73 2.46  44 2.49  42 2.49
                            46 2.49  40 2.49  45 2.49  37 2.49
  42  0.524  0.333  0.095-  13 2.46  18 2.46  17 2.46  69 2.46  70 2.46  74 2.46  43 2.49  41 2.49
                            47 2.49  37 2.49  46 2.49  38 2.49
  43  0.524  0.583  0.095-  14 2.46  19 2.46  18 2.46  70 2.46  71 2.46  75 2.46  44 2.49  42 2.49
                            48 2.49  38 2.49  47 2.49  39 2.49
  44  0.524  0.833  0.095-  15 2.46  20 2.46  19 2.46  71 2.46  72 2.46  76 2.46  43 2.49  41 2.49
                            45 2.49  39 2.49  48 2.49  40 2.49
  45  0.667  0.083  0.095-  20 2.46  21 2.46  24 2.46  76 2.46  73 2.46  77 2.46  48 2.49  46 2.49
                            44 2.49  50 2.49  41 2.49  49 2.49
  46  0.667  0.333  0.095-  17 2.46  22 2.46  21 2.46  73 2.46  74 2.46  78 2.46  47 2.49  45 2.49
                            41 2.49  51 2.49  42 2.49  50 2.49
  47  0.667  0.583  0.095-  18 2.46  23 2.46  22 2.46  74 2.46  75 2.46  79 2.46  48 2.49  46 2.49
                            42 2.49  52 2.49  43 2.49  51 2.49
  48  0.667  0.833  0.095-  19 2.46  24 2.46  23 2.46  75 2.46  76 2.46  80 2.46  47 2.49  45 2.49
                            43 2.49  49 2.49  44 2.49  52 2.49
  49  0.810  0.083  0.095-  24 2.46  25 2.46  28 2.46  80 2.46  77 2.46  81 2.46  52 2.49  50 2.49
                            54 2.49  48 2.49  53 2.49  45 2.49
  50  0.810  0.333  0.095-  21 2.46  26 2.46  25 2.46  77 2.46  78 2.46  82 2.46  51 2.49  49 2.49
                            55 2.49  45 2.49  54 2.49  46 2.49
  51  0.810  0.583  0.095-  22 2.46  27 2.46  26 2.46  78 2.46  79 2.46  83 2.46  52 2.49  50 2.49
                            56 2.49  46 2.49  55 2.49  47 2.49
  52  0.810  0.833  0.095-  23 2.46  28 2.46  27 2.46  79 2.46  80 2.46  84 2.46  51 2.49  49 2.49
                            53 2.49  47 2.49  56 2.49  48 2.49
  53  0.952  0.083  0.095-  28 2.46   1 2.46   4 2.46  84 2.46  81 2.46  57 2.46  56 2.49  54 2.49
                            52 2.49  30 2.49  49 2.49  29 2.49
  54  0.952  0.333  0.095-  25 2.46   2 2.46   1 2.46  81 2.46  82 2.46  58 2.46  55 2.49  53 2.49
                            49 2.49  31 2.49  50 2.49  30 2.49
  55  0.952  0.583  0.095-  26 2.46   3 2.46   2 2.46  82 2.46  83 2.46  59 2.46  56 2.49  54 2.49
                            50 2.49  32 2.49  51 2.49  31 2.49
  56  0.952  0.833  0.095-  27 2.46   4 2.46   3 2.46  83 2.46  84 2.46  60 2.46  55 2.49  53 2.49
                            51 2.49  29 2.49  52 2.49  32 2.49
  57  0.048  0.167  0.000-  30 2.46  29 2.46  53 2.46  58 2.49  60 2.49  62 2.49  84 2.49  81 2.49
                            61 2.49
  58  0.048  0.417  0.000-  31 2.46  30 2.46  54 2.46  57 2.49  59 2.49  63 2.49  81 2.49  62 2.49
                            82 2.49
  59  0.048  0.667  0.000-  32 2.46  31 2.46  55 2.46  58 2.49  60 2.49  64 2.49  82 2.49  63 2.49
                            83 2.49
  60  0.048  0.917  0.000-  29 2.46  32 2.46  56 2.46  57 2.49  59 2.49  61 2.49  83 2.49  64 2.49
                            84 2.49
  61  0.190  0.167  0.000-  34 2.46  33 2.46  29 2.46  62 2.49  64 2.49  66 2.49  60 2.49  65 2.49
                            57 2.49
  62  0.190  0.417  0.000-  35 2.46  34 2.46  30 2.46  61 2.49  63 2.49  67 2.49  57 2.49  66 2.49
                            58 2.49
  63  0.190  0.667  0.000-  36 2.46  35 2.46  31 2.46  62 2.49  64 2.49  68 2.49  58 2.49  67 2.49
                            59 2.49
  64  0.190  0.917  0.000-  33 2.46  36 2.46  32 2.46  61 2.49  63 2.49  65 2.49  59 2.49  68 2.49
                            60 2.49
  65  0.333  0.167  0.000-  38 2.46  37 2.46  33 2.46  66 2.49  68 2.49  64 2.49  70 2.49  61 2.49
                            69 2.49
  66  0.333  0.417  0.000-  39 2.46  38 2.46  34 2.46  65 2.49  67 2.49  61 2.49  71 2.49  62 2.49
                            70 2.49
  67  0.333  0.667  0.000-  40 2.46  39 2.46  35 2.46  66 2.49  68 2.49  62 2.49  72 2.49  63 2.49
                            71 2.49
  68  0.333  0.917  0.000-  37 2.46  40 2.46  36 2.46  65 2.49  67 2.49  63 2.49  69 2.49  64 2.49
                            72 2.49
  69  0.476  0.167  0.000-  42 2.46  41 2.46  37 2.46  70 2.49  72 2.49  74 2.49  68 2.49  73 2.49
                            65 2.49
  70  0.476  0.417  0.000-  43 2.46  42 2.46  38 2.46  69 2.49  71 2.49  75 2.49  65 2.49  74 2.49
                            66 2.49
  71  0.476  0.667  0.000-  44 2.46  43 2.46  39 2.46  70 2.49  72 2.49  76 2.49  66 2.49  75 2.49
                            67 2.49
  72  0.476  0.917  0.000-  41 2.46  44 2.46  40 2.46  69 2.49  71 2.49  73 2.49  67 2.49  76 2.49
                            68 2.49
  73  0.619  0.167  0.000-  46 2.46  45 2.46  41 2.46  74 2.49  76 2.49  72 2.49  78 2.49  69 2.49
                            77 2.49
  74  0.619  0.417  0.000-  47 2.46  46 2.46  42 2.46  73 2.49  75 2.49  69 2.49  79 2.49  70 2.49
                            78 2.49
  75  0.619  0.667  0.000-  48 2.46  47 2.46  43 2.46  74 2.49  76 2.49  70 2.49  80 2.49  71 2.49
                            79 2.49
  76  0.619  0.917  0.000-  45 2.46  48 2.46  44 2.46  73 2.49  75 2.49  71 2.49  77 2.49  72 2.49
                            80 2.49
  77  0.762  0.167  0.000-  50 2.46  49 2.46  45 2.46  78 2.49  80 2.49  82 2.49  76 2.49  81 2.49
                            73 2.49
  78  0.762  0.417  0.000-  51 2.46  50 2.46  46 2.46  77 2.49  79 2.49  83 2.49  73 2.49  82 2.49
                            74 2.49
  79  0.762  0.667  0.000-  52 2.46  51 2.46  47 2.46  78 2.49  80 2.49  84 2.49  74 2.49  83 2.49
                            75 2.49
  80  0.762  0.917  0.000-  49 2.46  52 2.46  48 2.46  77 2.49  79 2.49  81 2.49  75 2.49  84 2.49
                            76 2.49
  81  0.905  0.167  0.000-  54 2.46  53 2.46  49 2.46  82 2.49  84 2.49  80 2.49  58 2.49  77 2.49
                            57 2.49
  82  0.905  0.417  0.000-  55 2.46  54 2.46  50 2.46  81 2.49  83 2.49  77 2.49  59 2.49  78 2.49
                            58 2.49
  83  0.905  0.667  0.000-  56 2.46  55 2.46  51 2.46  82 2.49  84 2.49  78 2.49  60 2.49  79 2.49
                            59 2.49
  84  0.905  0.917  0.000-  53 2.46  56 2.46  52 2.46  81 2.49  83 2.49  79 2.49  57 2.49  80 2.49
                            60 2.49
  85  0.102  0.218  0.291- 108 1.37  86 1.43  90 1.46   5 2.23
  86  0.197  0.299  0.284-  95 1.09  85 1.43  87 1.46   5 2.16
  87  0.247  0.468  0.282-  92 1.45  88 1.46  86 1.46  10 2.03
  88  0.197  0.549  0.282-  96 1.10  89 1.43  87 1.46   6 2.11
  89  0.102  0.466  0.284-  97 1.09  88 1.43  90 1.45   6 2.09
  90  0.051  0.298  0.287- 107 1.38  89 1.45  85 1.46   1 2.20
  91  0.100  0.995  0.338- 100 1.10  99 1.10 101 1.11 108 1.43
  92  0.344  0.556  0.283- 102 1.10  93 1.45  87 1.45  10 2.15
  93  0.404  0.495  0.285- 103 1.10  92 1.45  94 1.51  14 2.05
  94  0.491  0.585  0.320- 105 1.10 104 1.11 109 1.46  93 1.51
  95  0.231  0.238  0.299-  86 1.09
  96  0.232  0.672  0.295-  88 1.10
  97  0.068  0.527  0.300-  89 1.09
  98  0.937  0.127  0.311- 107 0.98
  99  0.150  0.064  0.374-  91 1.10
 100  0.049  0.884  0.357-  91 1.10
 101  0.133  0.974  0.297-  91 1.11
 102  0.372  0.680  0.295-  92 1.10
 103  0.373  0.371  0.296-  93 1.10
 104  0.480  0.603  0.370-  94 1.11
 105  0.527  0.520  0.317-  94 1.10
 106  0.603  0.790  0.311- 109 0.98
 107  0.973  0.239  0.320-  98 0.98  90 1.38
 108  0.055  0.074  0.318-  85 1.37  91 1.43
 109  0.545  0.738  0.291- 106 0.98  94 1.46  19 2.18
 
  Warning from LATTYP: Monoclinic adjustement (A1->A3, A2->A1, A3->A2)!
  Warning from LATTYP: Got some problem with cell dimensions!
  Tried to take original basis but could not verify dimensions!
  LATTYP: Found a simple monoclinic cell.
 ALAT       =    18.7839874413
 B/A-ratio  =     1.1229936872
 C/A-ratio  =     1.7371079010
 COS(beta)  =    -0.9695485959
  
  Lattice vectors:
  
 A1 = (  -7.4639997487, -17.2373690552,   0.0000000000)
 A2 = (   0.0000000000,   0.0000000000, -21.0942993164)
 A3 = (  19.9039993294,  25.8560535828,   0.0000000000)


Analysis of symmetry for initial positions (statically):
=====================================================================
 Subroutine PRICEL returns:
 Original cell was already a primitive cell.
 

 Routine SETGRP: Setting up the symmetry group for a 
 simple monoclinic supercell.


 Subroutine GETGRP returns: Found  1 space group operations
 (whereof  1 operations were pure point group operations)
 out of a pool of  4 trial point group operations.


The static configuration has the point symmetry C_1 .


Analysis of symmetry for dynamics (positions and initial velocities):
=====================================================================
 Subroutine PRICEL returns:
 Original cell was already a primitive cell.
 

 Routine SETGRP: Setting up the symmetry group for a 
 simple monoclinic supercell.


 Subroutine GETGRP returns: Found  1 space group operations
 (whereof  1 operations were pure point group operations)
 out of a pool of  4 trial point group operations.


The dynamic configuration has the point symmetry C_1 .


Analysis of constrained symmetry for selective dynamics:
=====================================================================
 Subroutine PRICEL returns:
 Original cell was already a primitive cell.
 

 Routine SETGRP: Setting up the symmetry group for a 
 simple monoclinic supercell.


 Subroutine GETGRP returns: Found  1 space group operations
 (whereof  1 operations were pure point group operations)
 out of a pool of  4 trial point group operations.


The constrained configuration has the point symmetry C_1 .


Analysis of structural, dynamic, and magnetic symmetry:
=====================================================================
 Subroutine PRICEL returns:
 Original cell was already a primitive cell.
 

 Routine SETGRP: Setting up the symmetry group for a 
 simple monoclinic supercell.


 Subroutine GETGRP returns: Found  1 space group operations
 (whereof  1 operations were pure point group operations)
 out of a pool of  4 trial point group operations.


The magnetic configuration has the point symmetry C_1 .


 Subroutine INISYM returns: Found  1 space group operations
 (whereof  1 operations are pure point group operations),
 and found     1 'primitive' translations

 
 
 KPOINTS: K-POINTS                                

Automatic generation of k-mesh.
Space group operators:
 irot       det(A)        alpha          n_x          n_y          n_z        tau_x        tau_y        tau_z
    1     1.000000     0.000001     1.000000     0.000000     0.000000     0.000000     0.000000     0.000000
 
 Subroutine IBZKPT returns following result:
 ===========================================
 
 Found      5 irreducible k-points:
 
 Following reciprocal coordinates:
            Coordinates               Weight
  0.000000  0.000000  0.000000      1.000000
  0.333333 -0.000000  0.000000      2.000000
  0.000000  0.333333  0.000000      2.000000
  0.333333  0.333333  0.000000      2.000000
 -0.333333  0.333333  0.000000      2.000000
 
 Following cartesian coordinates:
            Coordinates               Weight
  0.000000  0.000000  0.000000      1.000000
  0.019139  0.011050  0.000000      2.000000
  0.000000  0.038676  0.000000      2.000000
  0.019139  0.049726  0.000000      2.000000
 -0.019139  0.027625  0.000000      2.000000
 


--------------------------------------------------------------------------------------------------------




 Dimension of arrays:
   k-points           NKPTS =      5   k-points in BZ     NKDIM =      5   number of bands    NBANDS=    624
   number of dos      NEDOS =    301   number of ions     NIONS =    109
   non local maximal  LDIM  =      6   non local SUM 2l+1 LMDIM =     18
   total plane-waves  NPLWV = 544320
   max r-space proj   IRMAX =   1785   max aug-charges    IRDMAX=   5771
   dimension x,y,z NGX =    90 NGY =   54 NGZ =  112
   dimension x,y,z NGXF=   180 NGYF=  108 NGZF=  224
   support grid    NGXF=   180 NGYF=  108 NGZF=  224
   ions per type =              84  10  12   3
   NGX,Y,Z   is equivalent  to a cutoff of   8.59,  9.02,  8.83 a.u.
   NGXF,Y,Z  is equivalent  to a cutoff of  17.18, 18.04, 17.65 a.u.

 SYSTEM =  x                                       
 POSCAR =  Ni  C  H  O                             

 Startparameter for this run:
   NWRITE =      0    write-flag & timer
   PREC   = normal    normal or accurate (medium, high low for compatibility)
   ISTART =      0    job   : 0-new  1-cont  2-samecut
   ICHARG =      2    charge: 1-file 2-atom 10-const
   ISPIN  =      2    spin polarized calculation?
   LNONCOLLINEAR =      F non collinear calculations
   LSORBIT =      F    spin-orbit coupling
   INIWAV =      1    electr: 0-lowe 1-rand  2-diag
   LASPH  =      F    aspherical Exc in radial PAW
   METAGGA=      F    non-selfconsistent MetaGGA calc.

 Electronic Relaxation 1
   ENCUT  =  450.0 eV  33.07 Ry    5.75 a.u.  30.12 17.21 36.49*2*pi/ulx,y,z
   ENINI  =  450.0     initial cutoff
   ENAUG  =  644.9 eV  augmentation charge cutoff
   NELM   =     50;   NELMIN=  5; NELMDL= -7     # of ELM steps 
   EDIFF  = 0.1E-04   stopping-criterion for ELM
   LREAL  =      T    real-space projection
   NLSPLINE    = F    spline interpolate recip. space projectors
   LCOMPAT=      F    compatible to vasp.4.4
   GGA_COMPAT  = T    GGA compatible to vasp.4.4-vasp.4.6
   LMAXPAW     = -100 max onsite density
   LMAXMIX     =    2 max onsite mixed and CHGCAR
   VOSKOWN=      0    Vosko Wilk Nusair interpolation
   ROPT   =   -0.00050  -0.00050  -0.00050  -0.00050
 Ionic relaxation
   EDIFFG = -.2E-01   stopping-criterion for IOM
   NSW    =    300    number of steps for IOM
   NBLOCK =      1;   KBLOCK =    300    inner block; outer block 
   IBRION =      2    ionic relax: 0-MD 1-quasi-New 2-CG
   NFREE  =      2    steps in history (QN), initial steepest desc. (CG)
   ISIF   =      2    stress and relaxation
   IWAVPR =     11    prediction:  0-non 1-charg 2-wave 3-comb
   ISYM   =      2    0-nonsym 1-usesym 2-fastsym
   LCORR  =      T    Harris-Foulkes like correction to forces

   POTIM  = 0.1500    time-step for ionic-motion
   TEIN   =    0.0    initial temperature
   TEBEG  =    0.0;   TEEND  =   0.0 temperature during run
   SMASS  =  -3.00    Nose mass-parameter (am)
   estimated Nose-frequenzy (Omega)   =  0.10E-29 period in steps =****** mass=  -0.693E-26a.u.
   SCALEE = 1.0000    scale energy and forces
   NPACO  =    256;   APACO  = 16.0  distance and # of slots for P.C.
   PSTRESS=    0.0 pullay stress

  Mass of Ions in am
   POMASS =  58.69 12.01  1.00 16.00
  Ionic Valenz
   ZVAL   =  10.00  4.00  1.00  6.00
  Atomic Wigner-Seitz radii
   RWIGS  =  -1.00 -1.00 -1.00 -1.00
  virtual crystal weights 
   VCA    =   1.00  1.00  1.00  1.00
   NELECT =     910.0000    total number of electrons
   NUPDOWN=      -1.0000    fix difference up-down

 DOS related values:
   EMIN   =  10.00;   EMAX   =-10.00  energy-range for DOS
   EFERMI =   0.00
   ISMEAR =     0;   SIGMA  =   0.03  broadening in eV -4-tet -1-fermi 0-gaus

 Electronic relaxation 2 (details)
   IALGO  =     68    algorithm
   LDIAG  =      T    sub-space diagonalisation (order eigenvalues)
   LSUBROT=      F    optimize rotation matrix (better conditioning)
   TURBO    =      0    0=normal 1=particle mesh
   IRESTART =      0    0=no restart 2=restart with 2 vectors
   NREBOOT  =      0    no. of reboots
   NMIN     =      0    reboot dimension
   EREF     =   0.00    reference energy to select bands
   IMIX   =      4    mixing-type and parameters
     AMIX     =   0.40;   BMIX     =  1.00
     AMIX_MAG =   1.60;   BMIX_MAG =  1.00
     AMIN     =   0.10
     WC   =   100.;   INIMIX=   1;  MIXPRE=   1;  MAXMIX= -45

 Intra band minimization:
   WEIMIN = 0.0010     energy-eigenvalue tresh-hold
   EBREAK =  0.40E-08  absolut break condition
   DEPER  =   0.30     relativ break condition  

   TIME   =   0.40     timestep for ELM

  volume/ion in A,a.u.               =      29.05       196.03
  Fermi-wavevector in a.u.,A,eV,Ry     =   1.080365  2.041594 15.880561  1.167188
  Thomas-Fermi vector in A             =   2.216354
 
 Write flags
   LWAVE        =      F    write WAVECAR
   LDOWNSAMPLE  =      F    k-point downsampling of WAVECAR
   LCHARG       =      F    write CHGCAR
   LVTOT        =      F    write LOCPOT, total local potential
   LVHAR        =      F    write LOCPOT, Hartree potential only
   LELF         =      F    write electronic localiz. function (ELF)
   LORBIT       =      0    0 simple, 1 ext, 2 COOP (PROOUT), +10 PAW based schemes


 Dipole corrections
   LMONO  =      F    monopole corrections only (constant potential shift)
   LDIPOL =      T    correct potential (dipole corrections)
   IDIPOL =      3    1-x, 2-y, 3-z, 4-all directions 
   EPSILON=  1.0000000 bulk dielectric constant

 Exchange correlation treatment:
   GGA     =    PE    GGA type
   LEXCH   =     8    internal setting for exchange type
   VOSKOWN=      0    Vosko Wilk Nusair interpolation
   LHFCALC =     F    Hartree Fock is set to
   LHFONE  =     F    Hartree Fock one center treatment
   AEXX    =    0.0000 exact exchange contribution

 Linear response parameters
   LEPSILON=     F    determine dielectric tensor
   LRPA    =     F    only Hartree local field effects (RPA)
   LNABLA  =     F    use nabla operator in PAW spheres
   LVEL    =     F    velocity operator in full k-point grid
   LINTERFAST=   F  fast interpolation
   KINTER  =     0    interpolate to denser k-point grid
   CSHIFT  =0.1000    complex shift for real part using Kramers Kronig
   OMEGAMAX=  -1.0    maximum frequency
   DEG_THRESHOLD= 0.2000000E-02 threshold for treating states as degnerate
   RTIME   =   -0.100 relaxation time in fs
  (WPLASMAI=    0.000 imaginary part of plasma frequency in eV, 0.658/RTIME)
   DFIELD  = 0.0000000 0.0000000 0.0000000 field for delta impulse in time
 
 Orbital magnetization related:
   ORBITALMAG=     F  switch on orbital magnetization
   LCHIMAG   =     F  perturbation theory with respect to B field
   DQ        =  0.001000  dq finite difference perturbation B field
   LLRAUG    =     F  two centre corrections for induced B field



--------------------------------------------------------------------------------------------------------


 conjugate gradient relaxation of ions
   using selective dynamics as specified on POSCAR
   WARNING: If single coordinates had been selected the selection of coordinates
            is made according to the corresponding   d i r e c t   coordinates!
            Don't support selection of single cartesian coordinates -- sorry ...
  !
 charge density and potential will be updated during run
 spin polarized calculation
 RMM-DIIS sequential band-by-band and
  variant of blocked Davidson during initial phase
 perform sub-space diagonalisation
    before iterative eigenvector-optimisation
 modified Broyden-mixing scheme, WC =      100.0
 initial mixing is a Kerker type mixing with AMIX =  0.4000 and BMIX =      1.0000
 Hartree-type preconditioning will be used
 using additional bands          169
 real space projection scheme for non local part
 use partial core corrections
 calculate Harris-corrections to forces 
   (improved forces if not selfconsistent)
 use gradient corrections 
 use of overlap-Matrix (Vanderbilt PP)
 Gauss-broadening in eV      SIGMA  =   0.03


--------------------------------------------------------------------------------------------------------


  energy-cutoff  :      450.00
  volume of cell :     3166.32
      direct lattice vectors                 reciprocal lattice vectors
    17.415999413  0.000000000  0.000000000     0.057418468  0.033150568  0.000000000
    -4.975999832  8.618684528  0.000000000     0.000000000  0.116026987  0.000000000
     0.000000000  0.000000000 21.094299316     0.000000000  0.000000000  0.047406173

  length of vectors
    17.415999413  9.951999664 21.094299316     0.066301136  0.116026987  0.047406173


 
 k-points in units of 2pi/SCALE and weight: K-POINTS                                
   0.00000000  0.00000000  0.00000000       0.111
   0.01913949  0.01105019  0.00000000       0.222
   0.00000000  0.03867566  0.00000000       0.222
   0.01913949  0.04972585  0.00000000       0.222
  -0.01913949  0.02762547  0.00000000       0.222
 
 k-points in reciprocal lattice and weights: K-POINTS                                
   0.00000000  0.00000000  0.00000000       0.111
   0.33333333 -0.00000000  0.00000000       0.222
   0.00000000  0.33333333  0.00000000       0.222
   0.33333333  0.33333333  0.00000000       0.222
  -0.33333333  0.33333333  0.00000000       0.222
 
 position of ions in fractional coordinates (direct lattice) 
   0.00001537  0.24997681  0.18957704
   0.00001537  0.49997681  0.18957704
   0.00001537  0.74997681  0.18957704
   0.00001537  0.99997681  0.18957704
   0.14287251  0.24997681  0.18957704
   0.14287251  0.49997681  0.18957704
   0.14287251  0.74997681  0.18957704
   0.14287251  0.99997681  0.18957704
   0.28572965  0.24997681  0.18957704
   0.28572965  0.49997681  0.18957704
   0.28572965  0.74997681  0.18957704
   0.28572965  0.99997681  0.18957704
   0.42858680  0.24997681  0.18957704
   0.42858680  0.49997681  0.18957704
   0.42858680  0.74997681  0.18957704
   0.42858680  0.99997681  0.18957704
   0.57144394  0.24997681  0.18957704
   0.57144394  0.49997681  0.18957704
   0.57144394  0.74997681  0.18957704
   0.57144394  0.99997681  0.18957704
   0.71430108  0.24997681  0.18957704
   0.71430108  0.49997681  0.18957704
   0.71430108  0.74997681  0.18957704
   0.71430108  0.99997681  0.18957704
   0.85715822  0.24997681  0.18957704
   0.85715822  0.49997681  0.18957704
   0.85715822  0.74997681  0.18957704
   0.85715822  0.99997681  0.18957704
   0.09522464  0.08331407  0.09489846
   0.09522464  0.33331407  0.09489846
   0.09522464  0.58331407  0.09489846
   0.09522464  0.83331407  0.09489846
   0.23808178  0.08331407  0.09489846
   0.23808178  0.33331407  0.09489846
   0.23808178  0.58331407  0.09489846
   0.23808178  0.83331407  0.09489846
   0.38093893  0.08331407  0.09489846
   0.38093893  0.33331407  0.09489846
   0.38093893  0.58331407  0.09489846
   0.38093893  0.83331407  0.09489846
   0.52379607  0.08331407  0.09489846
   0.52379607  0.33331407  0.09489846
   0.52379607  0.58331407  0.09489846
   0.52379607  0.83331407  0.09489846
   0.66665321  0.08331407  0.09489846
   0.66665321  0.33331407  0.09489846
   0.66665321  0.58331407  0.09489846
   0.66665321  0.83331407  0.09489846
   0.80951035  0.08331407  0.09489846
   0.80951035  0.33331407  0.09489846
   0.80951035  0.58331407  0.09489846
   0.80951035  0.83331407  0.09489846
   0.95236750  0.08331407  0.09489846
   0.95236750  0.33331407  0.09489846
   0.95236750  0.58331407  0.09489846
   0.95236750  0.83331407  0.09489846
   0.04761857  0.16666751  0.00000001
   0.04761857  0.41666751  0.00000001
   0.04761857  0.66666751  0.00000001
   0.04761857  0.91666751  0.00000001
   0.19047572  0.16666751  0.00000001
   0.19047572  0.41666751  0.00000001
   0.19047572  0.66666751  0.00000001
   0.19047572  0.91666751  0.00000001
   0.33333286  0.16666751  0.00000001
   0.33333286  0.41666751  0.00000001
   0.33333286  0.66666751  0.00000001
   0.33333286  0.91666751  0.00000001
   0.47619000  0.16666751  0.00000001
   0.47619000  0.41666751  0.00000001
   0.47619000  0.66666751  0.00000001
   0.47619000  0.91666751  0.00000001
   0.61904714  0.16666751  0.00000001
   0.61904714  0.41666751  0.00000001
   0.61904714  0.66666751  0.00000001
   0.61904714  0.91666751  0.00000001
   0.76190429  0.16666751  0.00000001
   0.76190429  0.41666751  0.00000001
   0.76190429  0.66666751  0.00000001
   0.76190429  0.91666751  0.00000001
   0.90476143  0.16666751  0.00000001
   0.90476143  0.41666751  0.00000001
   0.90476143  0.66666751  0.00000001
   0.90476143  0.91666751  0.00000001
   0.10248527  0.21837923  0.29143517
   0.19653543  0.29866901  0.28436018
   0.24740227  0.46776200  0.28182293
   0.19690830  0.54853409  0.28192740
   0.10215440  0.46626657  0.28415128
   0.05126227  0.29810602  0.28698726
   0.10042483  0.99548669  0.33772936
   0.34373616  0.55649506  0.28259461
   0.40367755  0.49468307  0.28466801
   0.49091004  0.58481166  0.31951585
   0.23133036  0.23767395  0.29860898
   0.23196314  0.67170403  0.29498075
   0.06754886  0.52657286  0.29990874
   0.93748629  0.12698045  0.31120986
   0.14968710  0.06372314  0.37447971
   0.04923612  0.88375889  0.35670738
   0.13341281  0.97431263  0.29686814
   0.37209809  0.67969142  0.29495015
   0.37264603  0.37068385  0.29647772
   0.47962939  0.60326587  0.36965702
   0.52663964  0.51953030  0.31727998
   0.60344607  0.78961768  0.31138306
   0.97255224  0.23852393  0.32038586
   0.05451385  0.07388352  0.31764448
   0.54507873  0.73773831  0.29128315
 
 position of ions in cartesian coordinates  (Angst):
  -1.24361694  2.15447126  3.99899477
  -2.48761690  4.30914239  3.99899477
  -3.73161686  6.46381352  3.99899477
  -4.97561681  8.61848466  3.99899477
   1.24438298  2.15447126  3.99899477
   0.00038302  4.30914239  3.99899477
  -1.24361694  6.46381352  3.99899477
  -2.48761690  8.61848466  3.99899477
   3.73238289  2.15447126  3.99899477
   2.48838294  4.30914239  3.99899477
   1.24438298  6.46381352  3.99899477
   0.00038302  8.61848466  3.99899477
   6.22038281  2.15447126  3.99899477
   4.97638285  4.30914239  3.99899477
   3.73238289  6.46381352  3.99899477
   2.48838294  8.61848466  3.99899477
   8.70838273  2.15447126  3.99899477
   7.46438277  4.30914239  3.99899477
   6.22038281  6.46381352  3.99899477
   4.97638285  8.61848466  3.99899477
  11.19638264  2.15447126  3.99899477
   9.95238268  4.30914239  3.99899477
   8.70838273  6.46381352  3.99899477
   7.46438277  8.61848466  3.99899477
  13.68438256  2.15447126  3.99899477
  12.44038260  4.30914239  3.99899477
  11.19638264  6.46381352  3.99899477
   9.95238268  8.61848466  3.99899477
   1.24386148  0.71805767  2.00181652
  -0.00013847  2.87272880  2.00181652
  -1.24413843  5.02739993  2.00181652
  -2.48813839  7.18207107  2.00181652
   3.73186140  0.71805767  2.00181652
   2.48786144  2.87272880  2.00181652
   1.24386148  5.02739993  2.00181652
  -0.00013847  7.18207107  2.00181652
   6.21986132  0.71805767  2.00181652
   4.97586136  2.87272880  2.00181652
   3.73186140  5.02739993  2.00181652
   2.48786144  7.18207107  2.00181652
   8.70786123  0.71805767  2.00181652
   7.46386128  2.87272880  2.00181652
   6.21986132  5.02739993  2.00181652
   4.97586136  7.18207107  2.00181652
  11.19586115  0.71805767  2.00181652
   9.95186119  2.87272880  2.00181652
   8.70786123  5.02739993  2.00181652
   7.46386128  7.18207107  2.00181652
  13.68386107  0.71805767  2.00181652
  12.43986111  2.87272880  2.00181652
  11.19586115  5.02739993  2.00181652
   9.95186119  7.18207107  2.00181652
  16.17186098  0.71805767  2.00181652
  14.92786102  2.87272880  2.00181652
  13.68386107  5.02739993  2.00181652
  12.43986111  7.18207107  2.00181652
  -0.00001246  1.43645466  0.00000018
  -1.24401242  3.59112579  0.00000018
  -2.48801237  5.74579692  0.00000018
  -3.73201233  7.90046805  0.00000018
   2.48798746  1.43645466  0.00000018
   1.24398750  3.59112579  0.00000018
  -0.00001246  5.74579692  0.00000018
  -1.24401241  7.90046805  0.00000018
   4.97598738  1.43645466  0.00000018
   3.73198742  3.59112579  0.00000018
   2.48798746  5.74579692  0.00000018
   1.24398750  7.90046805  0.00000018
   7.46398729  1.43645466  0.00000018
   6.21998733  3.59112579  0.00000018
   4.97598738  5.74579692  0.00000018
   3.73198742  7.90046805  0.00000018
   9.95198721  1.43645466  0.00000018
   8.70798725  3.59112579  0.00000018
   7.46398729  5.74579692  0.00000018
   6.21998733  7.90046805  0.00000018
  12.43998712  1.43645466  0.00000018
  11.19598717  3.59112579  0.00000018
   9.95198721  5.74579692  0.00000018
   8.70798725  7.90046805  0.00000018
  14.92798704  1.43645466  0.00000018
  13.68398708  3.59112579  0.00000018
  12.43998712  5.74579692  0.00000018
  11.19598717  7.90046805  0.00000018
   0.69822845  1.88214169  6.14762075
   1.93668408  2.57413397  5.99837878
   1.98117406  4.03149315  5.94485729
   0.69984938  4.72764224  5.94706101
  -0.54102142  4.01860445  5.99397221
  -0.59059181  2.56928178  6.05379506
  -3.20454278  8.57978577  7.12416413
   3.21738947  4.79625539  5.96113522
   4.56890503  4.26351732  6.00487222
   5.63966623  5.04030720  6.73996295
   2.84618383  2.04843677  6.29894729
   0.69747072  5.78920512  6.22241215
  -1.44379553  4.53836536  6.32636467
  15.69540592  1.09440443  6.56475404
   2.28986408  0.54920960  7.89938704
  -3.54008778  7.61683908  7.52449215
  -2.52466196  8.39729315  6.26222549
   3.09831566  5.85804593  6.22176682
   4.64548035  3.19480715  6.25398981
   5.35137421  5.19935826  7.79765592
   6.58677293  4.47766773  6.69279893
   6.58047901  6.80546569  6.56840737
  15.75107415  2.05576249  6.75831520
   0.58176878  0.63677875  6.70048765
   5.82210507  6.35833378  6.14441402
 


--------------------------------------------------------------------------------------------------------


 k-point  1 :   0.0000 0.0000 0.0000  plane waves:   68637
 k-point  2 :   0.3333-0.0000 0.0000  plane waves:   68670
 k-point  3 :   0.0000 0.3333 0.0000  plane waves:   68650
 k-point  4 :   0.3333 0.3333 0.0000  plane waves:   68645
 k-point  5 :  -0.3333 0.3333 0.0000  plane waves:   68661

 maximum and minimum number of plane-waves per node :     68670    68637

 maximum number of plane-waves:     68670
 maximum index in each direction: 
   IXMAX=   30   IYMAX=   17   IZMAX=   36
   IXMIN=  -30   IYMIN=  -17   IZMIN=  -36


 serial   3D FFT for wavefunctions
 parallel 3D FFT for charge:
    minimum data exchange during FFTs selected (reduces bandwidth)


 total amount of memory used by VASP MPI-rank0   265788. kBytes
=======================================================================

   base      :      30000. kBytes
   nonlr-proj:      27522. kBytes
   fftplans  :       5452. kBytes
   grid      :      53059. kBytes
   one-center:       3390. kBytes
   wavefun   :     146365. kBytes
 
     INWAV:  cpu time    0.0000: real time    0.0003
 Broyden mixing: mesh for mixing (old mesh)
   NGX = 61   NGY = 35   NGZ = 73
  (NGX  =180   NGY  =108   NGZ  =224)
  gives a total of 155855 points

 initial charge density was supplied:
 charge density of overlapping atoms calculated
 number of electron     910.0000000 magnetization     109.0000000
 keeping initial charge density in first step


--------------------------------------------------------------------------------------------------------


 Maximum index for non-local projection operator         1699
 Maximum index for augmentation-charges          348 (set IRDMAX)


--------------------------------------------------------------------------------------------------------


 First call to EWALD:  gamma=   0.121
 Maximum number of real-space cells 3x 4x 2
 Maximum number of reciprocal cells 3x 2x 4

    FEWALD:  cpu time    0.0038: real time    0.0039


--------------------------------------- Iteration      1(   1)  ---------------------------------------


    POTLOK:  cpu time    0.1962: real time    0.2190
    SETDIJ:  cpu time    0.0223: real time    0.0297
     EDDAV:  cpu time   40.1329: real time   40.2009
       DOS:  cpu time    0.0044: real time    0.0064
    --------------------------------------------
      LOOP:  cpu time   40.3558: real time   40.4560

 eigenvalue-minimisations  : 12480
 total energy-change (2. order) : 0.6785299E+04  (-0.3627945E+05)
 number of electron     910.0000000 magnetization     109.0000000
 augmentation part      910.0000000 magnetization     109.0000000

 DIPCOR: dipole corrections for dipol
 direction  3 min pos   148,
 dipolmoment           0.000000      0.000000     -0.000031 electrons x Angstroem
 Tr[quadrupol]    -30445.153123

 energy correction for charged system         0.000000 eV
 dipol+quadrupol energy correction           -0.000000 eV
 added-field ion interaction         -0.001565 eV  (added to PSCEN)


 Free energy of the ion-electron system (eV)
  ---------------------------------------------------
  alpha Z        PSCENC =      1318.59801988
  Ewald energy   TEWEN  =    332852.68414657
  -Hartree energ DENC   =   -422853.10258400
  -exchange      EXHF   =         0.00000000
  -V(xc)+E(xc)   XCENC  =      2894.92622418
  PAW double counting   =     83022.67459142   -88648.11549673
  entropy T*S    EENTRO =        -0.02580860
  eigenvalues    EBANDS =      4755.10368512
  atomic energy  EATOM  =     93442.55623187
  Solvation  Ediel_sol  =         0.00000000
  ---------------------------------------------------
  free energy    TOTEN  =      6785.29900972 eV

  energy without entropy =     6785.32481832  energy(sigma->0) =     6785.31191402


--------------------------------------------------------------------------------------------------------




--------------------------------------- Iteration      1(   2)  ---------------------------------------


     EDDAV:  cpu time   40.4518: real time   40.4686
       DOS:  cpu time    0.0036: real time    0.0036
    --------------------------------------------
      LOOP:  cpu time   40.4555: real time   40.4722

 eigenvalue-minimisations  : 12480
 total energy-change (2. order) :-0.6582155E+04  (-0.6182978E+04)
 number of electron     910.0000000 magnetization     109.0000000
 augmentation part      910.0000000 magnetization     109.0000000

 DIPCOR: dipole corrections for dipol
 direction  3 min pos   148,
 dipolmoment           0.000000      0.000000     -0.000031 electrons x Angstroem
 Tr[quadrupol]    -30445.153123

 energy correction for charged system         0.000000 eV
 dipol+quadrupol energy correction           -0.000000 eV
 added-field ion interaction         -0.001565 eV  (added to PSCEN)


 Free energy of the ion-electron system (eV)
  ---------------------------------------------------
  alpha Z        PSCENC =      1318.59801988
  Ewald energy   TEWEN  =    332852.68414657
  -Hartree energ DENC   =   -422853.10258400
  -exchange      EXHF   =         0.00000000
  -V(xc)+E(xc)   XCENC  =      2894.92622418
  PAW double counting   =     83022.67459142   -88648.11549673
  entropy T*S    EENTRO =        -0.05350636
  eigenvalues    EBANDS =     -1827.02338461
  atomic energy  EATOM  =     93442.55623187
  Solvation  Ediel_sol  =         0.00000000
  ---------------------------------------------------
  free energy    TOTEN  =       203.14424223 eV

  energy without entropy =      203.19774858  energy(sigma->0) =      203.17099540


--------------------------------------------------------------------------------------------------------




--------------------------------------- Iteration      1(   3)  ---------------------------------------


     EDDAV:  cpu time   53.4388: real time   53.4594
       DOS:  cpu time    0.0030: real time    0.0030
    --------------------------------------------
      LOOP:  cpu time   53.4418: real time   53.4624

 eigenvalue-minimisations  : 17424
 total energy-change (2. order) :-0.7963887E+03  (-0.7121310E+03)
 number of electron     910.0000000 magnetization     109.0000000
 augmentation part      910.0000000 magnetization     109.0000000

 DIPCOR: dipole corrections for dipol
 direction  3 min pos   148,
 dipolmoment           0.000000      0.000000     -0.000031 electrons x Angstroem
 Tr[quadrupol]    -30445.153123

 energy correction for charged system         0.000000 eV
 dipol+quadrupol energy correction           -0.000000 eV
 added-field ion interaction         -0.001565 eV  (added to PSCEN)


 Free energy of the ion-electron system (eV)
  ---------------------------------------------------
  alpha Z        PSCENC =      1318.59801988
  Ewald energy   TEWEN  =    332852.68414657
  -Hartree energ DENC   =   -422853.10258400
  -exchange      EXHF   =         0.00000000
  -V(xc)+E(xc)   XCENC  =      2894.92622418
  PAW double counting   =     83022.67459142   -88648.11549673
  entropy T*S    EENTRO =        -0.06916612
  eigenvalues    EBANDS =     -2623.39641121
  atomic energy  EATOM  =     93442.55623187
  Solvation  Ediel_sol  =         0.00000000
  ---------------------------------------------------
  free energy    TOTEN  =      -593.24444413 eV

  energy without entropy =     -593.17527802  energy(sigma->0) =     -593.20986107


--------------------------------------------------------------------------------------------------------




--------------------------------------- Iteration      1(   4)  ---------------------------------------


     EDDAV:  cpu time   49.6188: real time   49.6379
       DOS:  cpu time    0.0027: real time    0.0027
    --------------------------------------------
      LOOP:  cpu time   49.6215: real time   49.6405

 eigenvalue-minimisations  : 15936
 total energy-change (2. order) :-0.5095889E+02  (-0.4970637E+02)
 number of electron     910.0000000 magnetization     109.0000000
 augmentation part      910.0000000 magnetization     109.0000000

 DIPCOR: dipole corrections for dipol
 direction  3 min pos   148,
 dipolmoment           0.000000      0.000000     -0.000031 electrons x Angstroem
 Tr[quadrupol]    -30445.153123

 energy correction for charged system         0.000000 eV
 dipol+quadrupol energy correction           -0.000000 eV
 added-field ion interaction         -0.001565 eV  (added to PSCEN)


 Free energy of the ion-electron system (eV)
  ---------------------------------------------------
  alpha Z        PSCENC =      1318.59801988
  Ewald energy   TEWEN  =    332852.68414657
  -Hartree energ DENC   =   -422853.10258400
  -exchange      EXHF   =         0.00000000
  -V(xc)+E(xc)   XCENC  =      2894.92622418
  PAW double counting   =     83022.67459142   -88648.11549673
  entropy T*S    EENTRO =        -0.07135779
  eigenvalues    EBANDS =     -2674.35310736
  atomic energy  EATOM  =     93442.55623187
  Solvation  Ediel_sol  =         0.00000000
  ---------------------------------------------------
  free energy    TOTEN  =      -644.20333196 eV

  energy without entropy =     -644.13197417  energy(sigma->0) =     -644.16765307


--------------------------------------------------------------------------------------------------------




--------------------------------------- Iteration      1(   5)  ---------------------------------------


     EDDAV:  cpu time   45.4556: real time   45.4737
       DOS:  cpu time    0.0028: real time    0.0028
    --------------------------------------------
      LOOP:  cpu time   45.4584: real time   45.4765

 eigenvalue-minimisations  : 13920
 total energy-change (2. order) :-0.1237494E+01  (-0.1233662E+01)
 number of electron     910.0000000 magnetization     109.0000000
 augmentation part      910.0000000 magnetization     109.0000000

 DIPCOR: dipole corrections for dipol
 direction  3 min pos   148,
 dipolmoment           0.000000      0.000000     -0.000031 electrons x Angstroem
 Tr[quadrupol]    -30445.153123

 energy correction for charged system         0.000000 eV
 dipol+quadrupol energy correction           -0.000000 eV
 added-field ion interaction         -0.001565 eV  (added to PSCEN)


 Free energy of the ion-electron system (eV)
  ---------------------------------------------------
  alpha Z        PSCENC =      1318.59801988
  Ewald energy   TEWEN  =    332852.68414657
  -Hartree energ DENC   =   -422853.10258400
  -exchange      EXHF   =         0.00000000
  -V(xc)+E(xc)   XCENC  =      2894.92622418
  PAW double counting   =     83022.67459142   -88648.11549673
  entropy T*S    EENTRO =        -0.07089867
  eigenvalues    EBANDS =     -2675.59106053
  atomic energy  EATOM  =     93442.55623187
  Solvation  Ediel_sol  =         0.00000000
  ---------------------------------------------------
  free energy    TOTEN  =      -645.44082601 eV

  energy without entropy =     -645.36992734  energy(sigma->0) =     -645.40537667


--------------------------------------------------------------------------------------------------------




--------------------------------------- Iteration      1(   6)  ---------------------------------------


     EDDAV:  cpu time   54.4896: real time   54.5108
       DOS:  cpu time    0.0034: real time    0.0034
    --------------------------------------------
      LOOP:  cpu time   54.4931: real time   54.5143

 eigenvalue-minimisations  : 17856
 total energy-change (2. order) :-0.6022896E-01  (-0.6022238E-01)
 number of electron     910.0000000 magnetization     109.0000000
 augmentation part      910.0000000 magnetization     109.0000000

 DIPCOR: dipole corrections for dipol
 direction  3 min pos   148,
 dipolmoment           0.000000      0.000000     -0.000031 electrons x Angstroem
 Tr[quadrupol]    -30445.153123

 energy correction for charged system         0.000000 eV
 dipol+quadrupol energy correction           -0.000000 eV
 added-field ion interaction         -0.001565 eV  (added to PSCEN)


 Free energy of the ion-electron system (eV)
  ---------------------------------------------------
  alpha Z        PSCENC =      1318.59801988
  Ewald energy   TEWEN  =    332852.68414657
  -Hartree energ DENC   =   -422853.10258400
  -exchange      EXHF   =         0.00000000
  -V(xc)+E(xc)   XCENC  =      2894.92622418
  PAW double counting   =     83022.67459142   -88648.11549673
  entropy T*S    EENTRO =        -0.07088269
  eigenvalues    EBANDS =     -2675.65130547
  atomic energy  EATOM  =     93442.55623187
  Solvation  Ediel_sol  =         0.00000000
  ---------------------------------------------------
  free energy    TOTEN  =      -645.50105497 eV

  energy without entropy =     -645.43017228  energy(sigma->0) =     -645.46561363


--------------------------------------------------------------------------------------------------------




--------------------------------------- Iteration      1(   7)  ---------------------------------------


     EDDAV:  cpu time   49.9814: real time   50.0016
       DOS:  cpu time    0.0032: real time    0.0032
    CHARGE:  cpu time    1.7444: real time    1.7476
    MIXING:  cpu time    0.0043: real time    0.0049
    --------------------------------------------
      LOOP:  cpu time   51.7335: real time   51.7574

 eigenvalue-minimisations  : 16128
 total energy-change (2. order) :-0.2172183E-02  (-0.2172144E-02)
 number of electron     910.0001288 magnetization     104.5712389
 augmentation part      474.2386012 magnetization      90.6625413

 DIPCOR: dipole corrections for dipol
 direction  3 min pos   148,
 dipolmoment           0.000000      0.000000     -0.000031 electrons x Angstroem
 Tr[quadrupol]    -30445.153123

 energy correction for charged system         0.000000 eV
 dipol+quadrupol energy correction           -0.000000 eV
 added-field ion interaction         -0.001565 eV  (added to PSCEN)


 Broyden mixing:
  rms(total) = 0.95101E+01    rms(broyden)= 0.95093E+01
  rms(prec ) = 0.99975E+01
  weight for this iteration     100.00

 Free energy of the ion-electron system (eV)
  ---------------------------------------------------
  alpha Z        PSCENC =      1318.59801988
  Ewald energy   TEWEN  =    332852.68414657
  -Hartree energ DENC   =   -422853.10258400
  -exchange      EXHF   =         0.00000000
  -V(xc)+E(xc)   XCENC  =      2894.92622418
  PAW double counting   =     83022.67459142   -88648.11549673
  entropy T*S    EENTRO =        -0.07088200
  eigenvalues    EBANDS =     -2675.65347834
  atomic energy  EATOM  =     93442.55623187
  Solvation  Ediel_sol  =         0.00000000
  ---------------------------------------------------
  free energy    TOTEN  =      -645.50322715 eV

  energy without entropy =     -645.43234515  energy(sigma->0) =     -645.46778615


--------------------------------------------------------------------------------------------------------




--------------------------------------- Iteration      1(   8)  ---------------------------------------


    POTLOK:  cpu time    0.1694: real time    0.1699
    SETDIJ:  cpu time    0.0220: real time    0.0220
    EDDIAG:  cpu time    7.9502: real time    7.9583
  RMM-DIIS:  cpu time   20.6467: real time   21.1356
    ORTHCH:  cpu time    4.0844: real time    4.0858
       DOS:  cpu time    0.0013: real time    0.0013
    CHARGE:  cpu time    1.9097: real time    1.9108
    MIXING:  cpu time    0.0159: real time    0.0316
    --------------------------------------------
      LOOP:  cpu time   34.7996: real time   35.3153

 eigenvalue-minimisations  : 12535
 total energy-change (2. order) : 0.1342302E+02  (-0.1080608E+03)
 number of electron     910.0001667 magnetization     101.6990615
 augmentation part      562.2648758 magnetization      94.2670438

 DIPCOR: dipole corrections for dipol
 direction  3 min pos   144,
 dipolmoment           0.000000      0.000000      1.676831 electrons x Angstroem
 Tr[quadrupol]    -30447.358021

 energy correction for charged system         0.000000 eV
 dipol+quadrupol energy correction           -0.080785 eV
 added-field ion interaction         51.108133 eV  (added to PSCEN)


 Broyden mixing:
  rms(total) = 0.12589E+02    rms(broyden)= 0.12588E+02
  rms(prec ) = 0.13627E+02
  weight for this iteration     100.00

 eigenvalues of (default mixing * dielectric matrix)
  average eigenvalue GAMMA=   0.3528
  0.3528

 Free energy of the ion-electron system (eV)
  ---------------------------------------------------
  alpha Z        PSCENC =      1369.62693319
  Ewald energy   TEWEN  =    332852.68414657
  -Hartree energ DENC   =   -420900.20914304
  -exchange      EXHF   =         0.00000000
  -V(xc)+E(xc)   XCENC  =      2839.20524985
  PAW double counting   =     88423.54101345   -93660.45256111
  entropy T*S    EENTRO =        -0.04784164
  eigenvalues    EBANDS =     -4998.98423976
  atomic energy  EATOM  =     93442.55623187
  Solvation  Ediel_sol  =         0.00000000
  ---------------------------------------------------
  free energy    TOTEN  =      -632.08021062 eV

  energy without entropy =     -632.03236897  energy(sigma->0) =     -632.05628979


--------------------------------------------------------------------------------------------------------




--------------------------------------- Iteration      1(   9)  ---------------------------------------


    POTLOK:  cpu time    0.1814: real time    0.2887
    SETDIJ:  cpu time    0.0359: real time    0.0359
    EDDIAG:  cpu time    8.1849: real time    8.1881
  RMM-DIIS:  cpu time   20.8908: real time   20.9011
    ORTHCH:  cpu time    2.1943: real time    2.1952
       DOS:  cpu time    0.0013: real time    0.0013
    CHARGE:  cpu time    1.7376: real time    1.7383
    MIXING:  cpu time    0.0045: real time    0.0046
    --------------------------------------------
      LOOP:  cpu time   33.2308: real time   33.3532

 eigenvalue-minimisations  : 12490
 total energy-change (2. order) :-0.1573409E+02  (-0.3078908E+02)
 number of electron     910.0001184 magnetization      99.6932002
 augmentation part      524.3492015 magnetization      87.4877350

 DIPCOR: dipole corrections for dipol
 direction  3 min pos   143,
 dipolmoment           0.000000      0.000000     -1.626995 electrons x Angstroem
 Tr[quadrupol]    -30447.663224

 energy correction for charged system         0.000000 eV
 dipol+quadrupol energy correction           -0.076054 eV
 added-field ion interaction        -41.577462 eV  (added to PSCEN)


 Broyden mixing:
  rms(total) = 0.14059E+02    rms(broyden)= 0.14058E+02
  rms(prec ) = 0.16982E+02
  weight for this iteration     100.00

 eigenvalues of (default mixing * dielectric matrix)
  average eigenvalue GAMMA=   0.3227
  0.4565  0.1889

 Free energy of the ion-electron system (eV)
  ---------------------------------------------------
  alpha Z        PSCENC =      1276.94606929
  Ewald energy   TEWEN  =    332852.68414657
  -Hartree energ DENC   =   -421593.98233751
  -exchange      EXHF   =         0.00000000
  -V(xc)+E(xc)   XCENC  =      2860.88331414
  PAW double counting   =     91046.81492980   -96526.36870410
  entropy T*S    EENTRO =        -0.06344427
  eigenvalues    EBANDS =     -4007.28450366
  atomic energy  EATOM  =     93442.55623187
  Solvation  Ediel_sol  =         0.00000000
  ---------------------------------------------------
  free energy    TOTEN  =      -647.81429786 eV

  energy without entropy =     -647.75085359  energy(sigma->0) =     -647.78257573


--------------------------------------------------------------------------------------------------------




--------------------------------------- Iteration      1(  10)  ---------------------------------------


    POTLOK:  cpu time    0.1709: real time    0.1722
    SETDIJ:  cpu time    0.0220: real time    0.0220
    EDDIAG:  cpu time    8.0809: real time    8.0842
  RMM-DIIS:  cpu time   20.8871: real time   20.9030
    ORTHCH:  cpu time    2.2045: real time    2.2058
       DOS:  cpu time    0.0014: real time    0.0014
    CHARGE:  cpu time    1.7349: real time    1.7359
    MIXING:  cpu time    0.0047: real time    0.0047
    --------------------------------------------
      LOOP:  cpu time   33.1064: real time   33.1290

 eigenvalue-minimisations  : 12514
 total energy-change (2. order) :-0.2665512E+01  (-0.1129254E+02)
 number of electron     910.0001790 magnetization      98.2487341
 augmentation part      517.6383143 magnetization      84.3071482

 DIPCOR: dipole corrections for dipol
 direction  3 min pos   137,
 dipolmoment           0.000000      0.000000      1.521503 electrons x Angstroem
 Tr[quadrupol]    -30455.938822

 energy correction for charged system         0.000000 eV
 dipol+quadrupol energy correction           -0.066511 eV
 added-field ion interaction         -6.071807 eV  (added to PSCEN)


 Broyden mixing:
  rms(total) = 0.14566E+02    rms(broyden)= 0.14565E+02
  rms(prec ) = 0.17947E+02
  weight for this iteration     100.00

 eigenvalues of (default mixing * dielectric matrix)
  average eigenvalue GAMMA=   0.2710
  0.4910  0.2245  0.0975

 Free energy of the ion-electron system (eV)
  ---------------------------------------------------
  alpha Z        PSCENC =      1312.46126707
  Ewald energy   TEWEN  =    332852.68414657
  -Hartree energ DENC   =   -421991.59334960
  -exchange      EXHF   =         0.00000000
  -V(xc)+E(xc)   XCENC  =      2865.32567887
  PAW double counting   =     92334.20868063   -97899.19862728
  entropy T*S    EENTRO =        -0.05257860
  eigenvalues    EBANDS =     -3566.87125903
  atomic energy  EATOM  =     93442.55623187
  Solvation  Ediel_sol  =         0.00000000
  ---------------------------------------------------
  free energy    TOTEN  =      -650.47980949 eV

  energy without entropy =     -650.42723090  energy(sigma->0) =     -650.45352020


--------------------------------------------------------------------------------------------------------




--------------------------------------- Iteration      1(  11)  ---------------------------------------


    POTLOK:  cpu time    0.1701: real time    0.1705
    SETDIJ:  cpu time    0.0252: real time    0.0252
    EDDIAG:  cpu time    8.0538: real time    8.0632
  RMM-DIIS:  cpu time   20.9460: real time   20.9642
    ORTHCH:  cpu time    2.3083: real time    2.3092
       DOS:  cpu time    0.0014: real time    0.0014
    CHARGE:  cpu time    1.7136: real time    1.7144
    MIXING:  cpu time    0.0048: real time    0.0048
    --------------------------------------------
      LOOP:  cpu time   33.2231: real time   33.2529

 eigenvalue-minimisations  : 12497
 total energy-change (2. order) : 0.5416934E+02  (-0.7241392E+01)
 number of electron     910.0001283 magnetization      96.9494014
 augmentation part      521.3241136 magnetization      83.7314851

 DIPCOR: dipole corrections for dipol
 direction  3 min pos   145,
 dipolmoment           0.000000      0.000000     -1.517323 electrons x Angstroem
 Tr[quadrupol]    -30455.759144

 energy correction for charged system         0.000000 eV
 dipol+quadrupol energy correction           -0.066147 eV
 added-field ion interaction        -53.718152 eV  (added to PSCEN)


 Broyden mixing:
  rms(total) = 0.12620E+02    rms(broyden)= 0.12620E+02
  rms(prec ) = 0.15728E+02
  weight for this iteration     100.00

 eigenvalues of (default mixing * dielectric matrix)
  average eigenvalue GAMMA=   0.2378
  0.4543  0.2950  0.1272  0.0745

 Free energy of the ion-electron system (eV)
  ---------------------------------------------------
  alpha Z        PSCENC =      1264.81528720
  Ewald energy   TEWEN  =    332852.68414657
  -Hartree energ DENC   =   -422105.17835880
  -exchange      EXHF   =         0.00000000
  -V(xc)+E(xc)   XCENC  =      2863.49164923
  PAW double counting   =     93049.69431382   -98652.12186920
  entropy T*S    EENTRO =        -0.04880905
  eigenvalues    EBANDS =     -3312.20306044
  atomic energy  EATOM  =     93442.55623187
  Solvation  Ediel_sol  =         0.00000000
  ---------------------------------------------------
  free energy    TOTEN  =      -596.31046879 eV

  energy without entropy =     -596.26165973  energy(sigma->0) =     -596.28606426


--------------------------------------------------------------------------------------------------------




--------------------------------------- Iteration      1(  12)  ---------------------------------------


    POTLOK:  cpu time    0.1711: real time    0.1711
    SETDIJ:  cpu time    0.0221: real time    0.0221
    EDDIAG:  cpu time    7.9606: real time    7.9646
  RMM-DIIS:  cpu time   20.9752: real time   20.9949
    ORTHCH:  cpu time    2.1872: real time    2.1881
       DOS:  cpu time    0.0013: real time    0.0013
    CHARGE:  cpu time    1.7352: real time    1.7361
    MIXING:  cpu time    0.0051: real time    0.0051
    --------------------------------------------
      LOOP:  cpu time   33.0578: real time   33.0833

 eigenvalue-minimisations  : 12500
 total energy-change (2. order) : 0.4028749E+02  (-0.5555586E+01)
 number of electron     910.0001502 magnetization      94.1915434
 augmentation part      522.7800496 magnetization      76.5188344

 DIPCOR: dipole corrections for dipol
 direction  3 min pos   149,
 dipolmoment           0.000000      0.000000     -0.822904 electrons x Angstroem
 Tr[quadrupol]    -30458.282391

 energy correction for charged system         0.000000 eV
 dipol+quadrupol energy correction           -0.019456 eV
 added-field ion interaction        -45.342138 eV  (added to PSCEN)


 Broyden mixing:
  rms(total) = 0.83706E+01    rms(broyden)= 0.83698E+01
  rms(prec ) = 0.93803E+01
  weight for this iteration     100.00

 eigenvalues of (default mixing * dielectric matrix)
  average eigenvalue GAMMA=   0.2844
  0.5540  0.5540  0.1222  0.1222  0.0696

 Free energy of the ion-electron system (eV)
  ---------------------------------------------------
  alpha Z        PSCENC =      1273.23799162
  Ewald energy   TEWEN  =    332852.68414657
  -Hartree energ DENC   =   -422186.67928833
  -exchange      EXHF   =         0.00000000
  -V(xc)+E(xc)   XCENC  =      2865.64526067
  PAW double counting   =     93567.14736592   -99191.43507202
  entropy T*S    EENTRO =        -0.05616915
  eigenvalues    EBANDS =     -3179.12344665
  atomic energy  EATOM  =     93442.55623187
  Solvation  Ediel_sol  =         0.00000000
  ---------------------------------------------------
  free energy    TOTEN  =      -556.02297950 eV

  energy without entropy =     -555.96681035  energy(sigma->0) =     -555.99489492


--------------------------------------------------------------------------------------------------------




--------------------------------------- Iteration      1(  13)  ---------------------------------------


    POTLOK:  cpu time    0.1702: real time    0.1702
    SETDIJ:  cpu time    0.0219: real time    0.0220
    EDDIAG:  cpu time    7.9554: real time    7.9666
  RMM-DIIS:  cpu time   20.8540: real time   20.8691
    ORTHCH:  cpu time    2.1910: real time    2.1918
       DOS:  cpu time    0.0014: real time    0.0014
    CHARGE:  cpu time    1.6982: real time    1.6992
    MIXING:  cpu time    0.0052: real time    0.0052
    --------------------------------------------
      LOOP:  cpu time   32.8972: real time   32.9256

 eigenvalue-minimisations  : 12492
 total energy-change (2. order) :-0.3000851E+02  (-0.8701729E+01)
 number of electron     910.0001486 magnetization      89.4752073
 augmentation part      523.2379859 magnetization      75.3985331

 DIPCOR: dipole corrections for dipol
 direction  3 min pos   151,
 dipolmoment           0.000000      0.000000     -1.076526 electrons x Angstroem
 Tr[quadrupol]    -30457.974672

 energy correction for charged system         0.000000 eV
 dipol+quadrupol energy correction           -0.033297 eV
 added-field ion interaction        -69.918923 eV  (added to PSCEN)


 Broyden mixing:
  rms(total) = 0.13013E+02    rms(broyden)= 0.13012E+02
  rms(prec ) = 0.15444E+02
  weight for this iteration     100.00

 eigenvalues of (default mixing * dielectric matrix)
  average eigenvalue GAMMA=   0.3254
  0.7551  0.7551  0.1325  0.1325  0.1090  0.0682

 Free energy of the ion-electron system (eV)
  ---------------------------------------------------
  alpha Z        PSCENC =      1248.64736614
  Ewald energy   TEWEN  =    332852.68414657
  -Hartree energ DENC   =   -422185.97597622
  -exchange      EXHF   =         0.00000000
  -V(xc)+E(xc)   XCENC  =      2865.68723318
  PAW double counting   =     94792.85328637  -100453.64433741
  entropy T*S    EENTRO =        -0.03324040
  eigenvalues    EBANDS =     -3148.80619689
  atomic energy  EATOM  =     93442.55623187
  Solvation  Ediel_sol  =         0.00000000
  ---------------------------------------------------
  free energy    TOTEN  =      -586.03148678 eV

  energy without entropy =     -585.99824638  energy(sigma->0) =     -586.01486658


--------------------------------------------------------------------------------------------------------




--------------------------------------- Iteration      1(  14)  ---------------------------------------


    POTLOK:  cpu time    0.1700: real time    0.1713
    SETDIJ:  cpu time    0.0220: real time    0.0220
    EDDIAG:  cpu time    7.9646: real time    7.9686
  RMM-DIIS:  cpu time   20.9440: real time   20.9661
    ORTHCH:  cpu time    2.1888: real time    2.1898
       DOS:  cpu time    0.0014: real time    0.0014
    CHARGE:  cpu time    1.7283: real time    1.7291
    MIXING:  cpu time    0.0055: real time    0.0055
    --------------------------------------------
      LOOP:  cpu time   33.0246: real time   33.0539

 eigenvalue-minimisations  : 12499
 total energy-change (2. order) : 0.5098308E+02  (-0.7565751E+01)
 number of electron     910.0001462 magnetization      87.1155833
 augmentation part      525.5391261 magnetization      67.9905265

 DIPCOR: dipole corrections for dipol
 direction  3 min pos   141,
 dipolmoment           0.000000      0.000000     -0.488964 electrons x Angstroem
 Tr[quadrupol]    -30460.165249

 energy correction for charged system         0.000000 eV
 dipol+quadrupol energy correction           -0.006869 eV
 added-field ion interaction         -7.679804 eV  (added to PSCEN)


 Broyden mixing:
  rms(total) = 0.75865E+01    rms(broyden)= 0.75858E+01
  rms(prec ) = 0.87552E+01
  weight for this iteration     100.00

 eigenvalues of (default mixing * dielectric matrix)
  average eigenvalue GAMMA=   0.3468
  1.0540  0.6853  0.2817  0.1255  0.1255  0.0897  0.0658

 Free energy of the ion-electron system (eV)
  ---------------------------------------------------
  alpha Z        PSCENC =      1310.91291182
  Ewald energy   TEWEN  =    332852.68414657
  -Hartree energ DENC   =   -422181.00515231
  -exchange      EXHF   =         0.00000000
  -V(xc)+E(xc)   XCENC  =      2871.26719381
  PAW double counting   =     96539.35687275  -102249.72397354
  entropy T*S    EENTRO =        -0.06469927
  eigenvalues    EBANDS =     -3121.03193614
  atomic energy  EATOM  =     93442.55623187
  Solvation  Ediel_sol  =         0.00000000
  ---------------------------------------------------
  free energy    TOTEN  =      -535.04840444 eV

  energy without entropy =     -534.98370517  energy(sigma->0) =     -535.01605481


--------------------------------------------------------------------------------------------------------




--------------------------------------- Iteration      1(  15)  ---------------------------------------


    POTLOK:  cpu time    0.1709: real time    0.1709
    SETDIJ:  cpu time    0.0220: real time    0.0220
    EDDIAG:  cpu time    7.9735: real time    7.9806
  RMM-DIIS:  cpu time   20.9706: real time   20.9833
    ORTHCH:  cpu time    2.1897: real time    2.1908
       DOS:  cpu time    0.0013: real time    0.0013
    CHARGE:  cpu time    1.7328: real time    1.7336
    MIXING:  cpu time    0.0057: real time    0.0057
    --------------------------------------------
      LOOP:  cpu time   33.0665: real time   33.0882

 eigenvalue-minimisations  : 12493
 total energy-change (2. order) : 0.5918181E+01  (-0.3564319E+01)
 number of electron     910.0001437 magnetization      85.8593404
 augmentation part      524.6210126 magnetization      66.9570134

 DIPCOR: dipole corrections for dipol
 direction  3 min pos   146,
 dipolmoment           0.000000      0.000000     -0.902901 electrons x Angstroem
 Tr[quadrupol]    -30461.400572

 energy correction for charged system         0.000000 eV
 dipol+quadrupol energy correction           -0.023422 eV
 added-field ion interaction        -36.411702 eV  (added to PSCEN)


 Broyden mixing:
  rms(total) = 0.75059E+01    rms(broyden)= 0.75055E+01
  rms(prec ) = 0.87826E+01
  weight for this iteration     100.00

 eigenvalues of (default mixing * dielectric matrix)
  average eigenvalue GAMMA=   0.3448
  1.1562  0.6844  0.3838  0.1337  0.1337  0.1001  0.1001  0.0666

 Free energy of the ion-electron system (eV)
  ---------------------------------------------------
  alpha Z        PSCENC =      1282.16446092
  Ewald energy   TEWEN  =    332852.68414657
  -Hartree energ DENC   =   -422297.55355589
  -exchange      EXHF   =         0.00000000
  -V(xc)+E(xc)   XCENC  =      2870.89777057
  PAW double counting   =     97298.64451115  -103034.30617909
  entropy T*S    EENTRO =        -0.07134668
  eigenvalues    EBANDS =     -2944.14626326
  atomic energy  EATOM  =     93442.55623187
  Solvation  Ediel_sol  =         0.00000000
  ---------------------------------------------------
  free energy    TOTEN  =      -529.13022384 eV

  energy without entropy =     -529.05887717  energy(sigma->0) =     -529.09455050


--------------------------------------------------------------------------------------------------------




--------------------------------------- Iteration      1(  16)  ---------------------------------------


    POTLOK:  cpu time    0.1715: real time    0.1716
    SETDIJ:  cpu time    0.0220: real time    0.0220
    EDDIAG:  cpu time    7.9876: real time    7.9948
  RMM-DIIS:  cpu time   20.8051: real time   20.8209
    ORTHCH:  cpu time    2.1877: real time    2.1886
       DOS:  cpu time    0.0014: real time    0.0014
    CHARGE:  cpu time    1.7333: real time    1.7341
    MIXING:  cpu time    0.0060: real time    0.0060
    --------------------------------------------
      LOOP:  cpu time   32.9146: real time   32.9393

 eigenvalue-minimisations  : 12486
 total energy-change (2. order) :-0.2797305E+01  (-0.1594103E+01)
 number of electron     910.0001468 magnetization      84.1773741
 augmentation part      522.7884095 magnetization      65.3022496

 DIPCOR: dipole corrections for dipol
 direction  3 min pos   148,
 dipolmoment           0.000000      0.000000     -1.176195 electrons x Angstroem
 Tr[quadrupol]    -30462.979393

 energy correction for charged system         0.000000 eV
 dipol+quadrupol energy correction           -0.039747 eV
 added-field ion interaction        -59.016694 eV  (added to PSCEN)


 Broyden mixing:
  rms(total) = 0.76771E+01    rms(broyden)= 0.76767E+01
  rms(prec ) = 0.94042E+01
  weight for this iteration     100.00

 eigenvalues of (default mixing * dielectric matrix)
  average eigenvalue GAMMA=   0.3337
  1.2154  0.6958  0.4529  0.1396  0.1396  0.1125  0.1125  0.0710  0.0643

 Free energy of the ion-electron system (eV)
  ---------------------------------------------------
  alpha Z        PSCENC =      1259.54314347
  Ewald energy   TEWEN  =    332852.68414657
  -Hartree energ DENC   =   -422403.73678991
  -exchange      EXHF   =         0.00000000
  -V(xc)+E(xc)   XCENC  =      2870.93687473
  PAW double counting   =     97607.67302768  -103355.00636444
  entropy T*S    EENTRO =        -0.06500887
  eigenvalues    EBANDS =     -2806.51278961
  atomic energy  EATOM  =     93442.55623187
  Solvation  Ediel_sol  =         0.00000000
  ---------------------------------------------------
  free energy    TOTEN  =      -531.92752850 eV

  energy without entropy =     -531.86251963  energy(sigma->0) =     -531.89502407


--------------------------------------------------------------------------------------------------------




--------------------------------------- Iteration      1(  17)  ---------------------------------------


    POTLOK:  cpu time    0.1702: real time    0.1709
[...]

 DIPCOR: dipole corrections for dipol
 direction  3 min pos   149,
 dipolmoment           0.000000      0.000000     -1.025309 electrons x Angstroem
 Tr[quadrupol]    -30440.057974

 energy correction for charged system         0.000000 eV
 dipol+quadrupol energy correction           -0.030204 eV
 added-field ion interaction        -56.614652 eV  (added to PSCEN)


 eigenvalues of (default mixing * dielectric matrix)
  average eigenvalue GAMMA=   0.0924
  0.1228  0.0620

  free energy =  -0.577811281633E+03  energy without entropy=  -0.577740971967E+03


--------------------------------------------------------------------------------------------------------




--------------------------------------- Iteration     53(   4)  ---------------------------------------


    POTLOK:  cpu time    0.1693: real time    0.1698
    SETDIJ:  cpu time    0.0275: real time    0.0275
    EDDIAG:  cpu time    7.9689: real time    7.9723
  RMM-DIIS:  cpu time   16.6100: real time   16.6178
    ORTHCH:  cpu time    3.9417: real time    3.9443
       DOS:  cpu time    0.0100: real time    0.0100
    CHARGE:  cpu time    1.9063: real time    1.9071
    MIXING:  cpu time    0.0172: real time    0.0172
    --------------------------------------------
      LOOP:  cpu time   30.6510: real time   30.6661

 eigenvalue-minimisations  :  9180
 total energy-change (2. order) :-0.5651861E-04  (-0.3018129E-05)
 number of electron     910.0002435 magnetization      57.0431281
 augmentation part      522.0247180 magnetization      53.4602410

 DIPCOR: dipole corrections for dipol
 direction  3 min pos   149,
 dipolmoment           0.000000      0.000000     -1.024885 electrons x Angstroem
 Tr[quadrupol]    -30440.058679

 energy correction for charged system         0.000000 eV
 dipol+quadrupol energy correction           -0.030179 eV
 added-field ion interaction        -56.591212 eV  (added to PSCEN)


 eigenvalues of (default mixing * dielectric matrix)
  average eigenvalue GAMMA=   0.1560
  0.3257  0.0858  0.0566

  free energy =  -0.577811338152E+03  energy without entropy=  -0.577741042021E+03


--------------------------------------------------------------------------------------------------------




--------------------------------------- Iteration     53(   5)  ---------------------------------------


    POTLOK:  cpu time    0.2675: real time    0.2682
    SETDIJ:  cpu time    0.0442: real time    0.0442
    EDDIAG:  cpu time    9.6136: real time    9.6176
  RMM-DIIS:  cpu time   12.7912: real time   12.7965
    ORTHCH:  cpu time    2.1884: real time    2.1891
       DOS:  cpu time    0.0013: real time    0.0013
    CHARGE:  cpu time    1.7753: real time    1.7762
    MIXING:  cpu time    0.0050: real time    0.0050
    --------------------------------------------
      LOOP:  cpu time   26.6866: real time   26.6982

 eigenvalue-minimisations  :  7402
 total energy-change (2. order) :-0.1433486E-04  (-0.1355549E-05)
 number of electron     910.0002435 magnetization      57.0433968
 augmentation part      522.0247135 magnetization      53.4602984

 DIPCOR: dipole corrections for dipol
 direction  3 min pos   149,
 dipolmoment           0.000000      0.000000     -1.025287 electrons x Angstroem
 Tr[quadrupol]    -30440.057437

 energy correction for charged system         0.000000 eV
 dipol+quadrupol energy correction           -0.030202 eV
 added-field ion interaction        -56.613449 eV  (added to PSCEN)


 eigenvalues of (default mixing * dielectric matrix)
  average eigenvalue GAMMA=   0.2336
  0.6952  0.1094  0.0755  0.0542

  free energy =  -0.577811352487E+03  energy without entropy=  -0.577741031730E+03


--------------------------------------------------------------------------------------------------------




--------------------------------------- Iteration     53(   6)  ---------------------------------------


    POTLOK:  cpu time    0.1691: real time    0.1699
    SETDIJ:  cpu time    0.0220: real time    0.0220
    EDDIAG:  cpu time    7.9617: real time    7.9652
  RMM-DIIS:  cpu time   12.6377: real time   12.6438
    ORTHCH:  cpu time    2.1996: real time    2.2003
       DOS:  cpu time    0.0013: real time    0.0013
    --------------------------------------------
      LOOP:  cpu time   22.9914: real time   23.0024

 eigenvalue-minimisations  :  7278
 total energy-change (2. order) : 0.3778943E-05  (-0.8664570E-06)
 number of electron     910.0002435 magnetization      57.0433968
 augmentation part      522.0247135 magnetization      53.4602984

 DIPCOR: dipole corrections for dipol
 direction  3 min pos   149,
 dipolmoment           0.000000      0.000000     -1.024717 electrons x Angstroem
 Tr[quadrupol]    -30440.059734

 energy correction for charged system         0.000000 eV
 dipol+quadrupol energy correction           -0.030169 eV
 added-field ion interaction        -56.581948 eV  (added to PSCEN)


  free energy =  -0.577811348708E+03  energy without entropy=  -0.577741072871E+03


--------------------------------------------------------------------------------------------------------




------------------------ aborting loop because EDIFF is reached ----------------------------------------


    CHARGE:  cpu time    1.7625: real time    1.7634
    FORLOC:  cpu time    0.0439: real time    0.0439
    FORNL :  cpu time    6.8639: real time    6.8667
    STRESS:  cpu time   20.5308: real time   20.5401
    FORCOR:  cpu time    0.1695: real time    0.1695
    FORHAR:  cpu time    0.0559: real time    0.0559
    MIXING:  cpu time    0.0050: real time    0.0050
    OFIELD:  cpu time    0.0001: real time    0.0001

  Number of pair interactions contributing to vdW energy:  496028
  Edisp (eV):   -8.13015
    FORVDW:  cpu time    0.0625: real time    0.0625

  FORCE on cell =-STRESS in cart. coord.  units (eV):
  Direction    XX          YY          ZZ          XY          YZ          ZX
  --------------------------------------------------------------------------------------
  Alpha Z  1318.59959  1318.59959  1318.59959
  Ewald  383827.32563383859.62107************   229.62993  -531.90344   -59.95587
  Hartree406813.77108406854.41723************   100.36080  -375.38267   -60.18958
  E(xc)   -4885.72886 -4885.48583 -4899.97584     0.45992    -0.46121    -0.08216
  Local  ************************808655.54375  -309.00198   892.40440   120.60007
  n-local  -834.59744  -828.70840  -889.51109    -2.68486    -3.46548     0.11049
  augment 14789.01004 14790.56688 14871.16122    -3.48716     1.35952     0.28936
  Kinetic  7622.75961  7596.06908  7778.08302   -18.88697    16.63439    -0.84363
  Fock        0.00000     0.00000     0.00000     0.00000     0.00000     0.00000
  vdW       -10.39739   -10.35053    -7.32043    -0.00270     0.01327    -0.03068
  -------------------------------------------------------------------------------------
  Total     -45.51178   -40.87462    -2.81372    -3.61303    -0.80122    -0.10199
  in kB     -23.02926   -20.68282    -1.42376    -1.82822    -0.40542    -0.05161
  external pressure =      -15.05 kB  Pullay stress =        0.00 kB



--------------------------------------------------------------------------------------------------------



  FREE ENERGIE OF THE ION-ELECTRON SYSTEM (eV)
  ---------------------------------------------------
  free  energy   TOTEN  =      -585.94149837 eV

  energy  without entropy=     -585.87122253  energy(sigma->0) =     -585.90636045
 
 d Force = 0.1676350E-04[ 0.156E-05, 0.320E-04]  d Energy = 0.2556109E-04-0.880E-05
 d Force = 0.3534232E+01[ 0.353E+01, 0.353E+01]  d Ewald  = 0.3534232E+01-0.361E-06


--------------------------------------------------------------------------------------------------------


    POTLOK:  cpu time    0.1928: real time    0.1929


--------------------------------------------------------------------------------------------------------




--------------------------------------------------------------------------------------------------------


    WAVPRE:  cpu time    0.0442: real time    0.0455
    FEWALD:  cpu time    0.0025: real time    0.0025
    ORTHCH:  cpu time    4.4584: real time    4.4608
     LOOP+:  cpu time  225.3568: real time  225.4698


--------------------------------------- Iteration     54(   1)  ---------------------------------------


    POTLOK:  cpu time    0.1703: real time    0.1706
    SETDIJ:  cpu time    0.0220: real time    0.0220
     EDDAV:  cpu time   41.1688: real time   41.1884
       DOS:  cpu time    0.0070: real time    0.0070
    CHARGE:  cpu time    1.7613: real time    1.7620
    MIXING:  cpu time    0.0038: real time    0.0038
    --------------------------------------------
      LOOP:  cpu time   43.1332: real time   43.1538

 eigenvalue-minimisations  : 12864
 total energy-change (2. order) :-0.1254466E-03  (-0.2086469E-02)
 number of electron     910.0002432 magnetization      57.0439835
 augmentation part      522.0243382 magnetization      53.4606585

 DIPCOR: dipole corrections for dipol
 direction  3 min pos   149,
 dipolmoment           0.000000      0.000000     -1.025271 electrons x Angstroem
 Tr[quadrupol]    -30439.967344

 energy correction for charged system         0.000000 eV
 dipol+quadrupol energy correction           -0.030201 eV
 added-field ion interaction        -56.612161 eV  (added to PSCEN)


  free energy =  -0.577811477933E+03  energy without entropy=  -0.577741166508E+03


--------------------------------------------------------------------------------------------------------




--------------------------------------- Iteration     54(   2)  ---------------------------------------


    POTLOK:  cpu time    0.1690: real time    0.1697
    SETDIJ:  cpu time    0.0220: real time    0.0220
    EDDIAG:  cpu time    8.0989: real time    8.1028
  RMM-DIIS:  cpu time   21.0770: real time   21.0869
    ORTHCH:  cpu time    2.1817: real time    2.1824
       DOS:  cpu time    0.0013: real time    0.0013
    CHARGE:  cpu time    1.8474: real time    1.8483
    MIXING:  cpu time    0.0042: real time    0.0048
    --------------------------------------------
      LOOP:  cpu time   33.4016: real time   33.4183

 eigenvalue-minimisations  : 12537
 total energy-change (2. order) :-0.3777891E-03  (-0.6155893E-04)
 number of electron     910.0002432 magnetization      57.0439506
 augmentation part      522.0260005 magnetization      53.4631427

 DIPCOR: dipole corrections for dipol
 direction  3 min pos   150,
 dipolmoment           0.000000      0.000000     -1.022543 electrons x Angstroem
 Tr[quadrupol]    -30439.783050

 energy correction for charged system         0.000000 eV
 dipol+quadrupol energy correction           -0.030041 eV
 added-field ion interaction        -61.496740 eV  (added to PSCEN)


 eigenvalues of (default mixing * dielectric matrix)
  average eigenvalue GAMMA=   0.0676
  0.0676

  free energy =  -0.577811855722E+03  energy without entropy=  -0.577741643806E+03


--------------------------------------------------------------------------------------------------------




--------------------------------------- Iteration     54(   3)  ---------------------------------------


    POTLOK:  cpu time    0.1726: real time    0.1739
    SETDIJ:  cpu time    0.0220: real time    0.0220
    EDDIAG:  cpu time    7.9563: real time    7.9624
  RMM-DIIS:  cpu time   20.9209: real time   20.9347
    ORTHCH:  cpu time    2.3107: real time    2.3119
       DOS:  cpu time    0.0014: real time    0.0014
    CHARGE:  cpu time    1.7530: real time    1.7535
    MIXING:  cpu time    0.0047: real time    0.0047
    --------------------------------------------
      LOOP:  cpu time   33.1416: real time   33.1643

 eigenvalue-minimisations  : 12505
 total energy-change (2. order) : 0.3560598E-03  (-0.1191484E-04)
 number of electron     910.0002432 magnetization      57.0440506
 augmentation part      522.0239577 magnetization      53.4604562

 DIPCOR: dipole corrections for dipol
 direction  3 min pos   150,
 dipolmoment           0.000000      0.000000     -1.025591 electrons x Angstroem
 Tr[quadrupol]    -30439.773710

 energy correction for charged system         0.000000 eV
 dipol+quadrupol energy correction           -0.030220 eV
 added-field ion interaction        -61.680073 eV  (added to PSCEN)


 eigenvalues of (default mixing * dielectric matrix)
  average eigenvalue GAMMA=   0.1505
  0.2465  0.0545

  free energy =  -0.577811499663E+03  energy without entropy=  -0.577741149965E+03


--------------------------------------------------------------------------------------------------------




--------------------------------------- Iteration     54(   4)  ---------------------------------------


    POTLOK:  cpu time    0.1694: real time    0.1702
    SETDIJ:  cpu time    0.0220: real time    0.0220
    EDDIAG:  cpu time    7.9806: real time    7.9842
  RMM-DIIS:  cpu time   18.0079: real time   18.0170
    ORTHCH:  cpu time    2.2673: real time    2.2683
       DOS:  cpu time    0.0013: real time    0.0013
    CHARGE:  cpu time    1.7497: real time    1.7511
    MIXING:  cpu time    0.0042: real time    0.0046
    --------------------------------------------
      LOOP:  cpu time   30.2025: real time   30.2188

 eigenvalue-minimisations  : 10574
 total energy-change (2. order) :-0.4156173E-04  (-0.4385637E-05)
 number of electron     910.0002432 magnetization      57.0442591
 augmentation part      522.0246529 magnetization      53.4612309

 DIPCOR: dipole corrections for dipol
 direction  3 min pos   148,
 dipolmoment           0.000000      0.000000     -1.024591 electrons x Angstroem
 Tr[quadrupol]    -30440.162128

 energy correction for charged system         0.000000 eV
 dipol+quadrupol energy correction           -0.030161 eV
 added-field ion interaction        -51.529281 eV  (added to PSCEN)


 eigenvalues of (default mixing * dielectric matrix)
  average eigenvalue GAMMA=   0.2547
  0.6224  0.0895  0.0521

  free energy =  -0.577811541224E+03  energy without entropy=  -0.577741272235E+03


--------------------------------------------------------------------------------------------------------




--------------------------------------- Iteration     54(   5)  ---------------------------------------


    POTLOK:  cpu time    0.1686: real time    0.1701
    SETDIJ:  cpu time    0.0221: real time    0.0221
    EDDIAG:  cpu time    8.0000: real time    8.0036
  RMM-DIIS:  cpu time   13.5812: real time   13.5935
    ORTHCH:  cpu time    2.2582: real time    2.2594
       DOS:  cpu time    0.0014: real time    0.0024
    --------------------------------------------
      LOOP:  cpu time   24.0315: real time   24.0512

 eigenvalue-minimisations  :  7876
 total energy-change (2. order) :-0.5542999E-05  (-0.2464921E-05)
 number of electron     910.0002432 magnetization      57.0442591
 augmentation part      522.0246529 magnetization      53.4612309

 DIPCOR: dipole corrections for dipol
 direction  3 min pos   149,
 dipolmoment           0.000000      0.000000     -1.025452 electrons x Angstroem
 Tr[quadrupol]    -30439.967118

 energy correction for charged system         0.000000 eV
 dipol+quadrupol energy correction           -0.030212 eV
 added-field ion interaction        -56.622166 eV  (added to PSCEN)


  free energy =  -0.577811546767E+03  energy without entropy=  -0.577741228831E+03


--------------------------------------------------------------------------------------------------------




------------------------ aborting loop because EDIFF is reached ----------------------------------------


    CHARGE:  cpu time    1.8641: real time    1.8646
    FORLOC:  cpu time    0.0979: real time    0.0981
    FORNL :  cpu time    6.8630: real time    6.8660
    STRESS:  cpu time   20.5085: real time   20.5175
    FORCOR:  cpu time    0.1684: real time    0.1697
    FORHAR:  cpu time    0.0559: real time    0.0559
    MIXING:  cpu time    0.0047: real time    0.0047
    OFIELD:  cpu time    0.0001: real time    0.0001

  Number of pair interactions contributing to vdW energy:  496028
  Edisp (eV):   -8.13013
    FORVDW:  cpu time    0.0625: real time    0.0625

  FORCE on cell =-STRESS in cart. coord.  units (eV):
  Direction    XX          YY          ZZ          XY          YZ          ZX
  --------------------------------------------------------------------------------------
  Alpha Z  1318.59959  1318.59959  1318.59959
  Ewald  383825.56118383857.78621************   229.74904  -532.13577   -60.20653
  Hartree406815.27804406855.70397************   100.54417  -375.27575   -59.69826
  E(xc)   -4885.72801 -4885.48473 -4899.97263     0.45919    -0.46075    -0.08254
  Local  ************************808655.42941  -309.32742   892.51894   120.32906
  n-local  -834.57947  -828.67938  -889.49723    -2.67736    -3.46658     0.10717
  augment 14789.02490 14790.57407 14871.10938    -3.48739     1.35755     0.29531
  Kinetic  7622.77604  7596.04369  7778.05077   -18.85977    16.64173    -0.82823
  Fock        0.00000     0.00000     0.00000     0.00000     0.00000     0.00000
  vdW       -10.39706   -10.35042    -7.32084    -0.00292     0.01317    -0.03084
  -------------------------------------------------------------------------------------
  Total     -45.51694   -40.89674    -2.82238    -3.60246    -0.80745    -0.11485
  in kB     -23.03187   -20.69402    -1.42814    -1.82287    -0.40858    -0.05812
  external pressure =      -15.05 kB  Pullay stress =        0.00 kB



--------------------------------------------------------------------------------------------------------



  FREE ENERGIE OF THE ION-ELECTRON SYSTEM (eV)
  ---------------------------------------------------
  free  energy   TOTEN  =      -585.94167442 eV

  energy  without entropy=     -585.87135648  energy(sigma->0) =     -585.90651545
 
 d Force = 0.1580973E-03[ 0.123E-03, 0.193E-03]  d Energy = 0.1760514E-03-0.180E-04
 d Force = 0.1824763E+01[ 0.182E+01, 0.182E+01]  d Ewald  = 0.1824763E+01 0.327E-06


--------------------------------------------------------------------------------------------------------


    POTLOK:  cpu time    0.1930: real time    0.1946


--------------------------------------------------------------------------------------------------------


 Conjugate gradient step on ions:
 trial-energy change:   -0.000176  1 .order   -0.000158   -0.000193   -0.000123
  (g-gl).g = 0.109E-03      g.g   = 0.144E-03  gl.gl    = 0.212E-03
 g(Force)  = 0.144E-03   g(Stress)= 0.000E+00 ortho     = 0.296E-05
 gamma     =   0.51595
 trial     =   1.32639
 opt step  =   3.67202  (harmonic =   3.67202) maximal distance =0.00233161
 next E    =  -585.941765   (d E  =  -0.00027)


--------------------------------------------------------------------------------------------------------


  
 reached required accuracy - stopping structural energy minimisation
     LOOP+:  cpu time  193.7783: real time  193.9565
    4ORBIT:  cpu time    0.0000: real time    0.0000

 total amount of memory used by VASP MPI-rank0   265788. kBytes
=======================================================================

   base      :      30000. kBytes
   nonlr-proj:      27522. kBytes
   fftplans  :       5452. kBytes
   grid      :      53059. kBytes
   one-center:       3390. kBytes
   wavefun   :     146365. kBytes
 
  
  
 General timing and accounting informations for this job:
 ========================================================
  
                  Total CPU time used (sec):    25423.010
                            User time (sec):    25330.832
                          System time (sec):       92.178
                         Elapsed time (sec):    25467.612
  
                   Maximum memory used (kb):      596716.
                   Average memory used (kb):           0.
  
                          Minor page faults:      8194908
                          Major page faults:            0
                 Voluntary context switches:        11990
