 vasp.5.4.4.18Apr17-6-g9f103f2a35 (build May 11 2017 09:47:33) complex          
  
 executed on            tekla2IFC date 2022.05.24  19:36:19
 running on   12 total cores
 distrk:  each k-point on   12 cores,    1 groups
 distr:  one band on NCORES_PER_BAND=   1 cores,   12 groups


--------------------------------------------------------------------------------------------------------


 INCAR:
 POTCAR:    PAW_PBE C 08Apr2002                   
 POTCAR:    PAW_PBE H 15Jun2001                   
 POTCAR:    PAW_PBE O 08Apr2002                   

 ----------------------------------------------------------------------------- 
|                                                                             |
|           W    W    AA    RRRRR   N    N  II  N    N   GGGG   !!!           |
|           W    W   A  A   R    R  NN   N  II  NN   N  G    G  !!!           |
|           W    W  A    A  R    R  N N  N  II  N N  N  G       !!!           |
|           W WW W  AAAAAA  RRRRR   N  N N  II  N  N N  G  GGG   !            |
|           WW  WW  A    A  R   R   N   NN  II  N   NN  G    G                |
|           W    W  A    A  R    R  N    N  II  N    N   GGGG   !!!           |
|                                                                             |
|      For optimal performance we recommend to set                            |
|        NCORE= 4 - approx SQRT( number of cores)                             |
|      NCORE specifies how many cores store one orbital (NPAR=cpu/NCORE).     |
|      This setting can  greatly improve the performance of VASP for DFT.     |
|      The default,   NCORE=1            might be grossly inefficient         |
|      on modern multi-core architectures or massively parallel machines.     |
|      Do your own testing !!!!                                               |
|      Unfortunately you need to use the default for GW and RPA calculations. |
|      (for HF NCORE is supported but not extensively tested yet)             |
|                                                                             |
 ----------------------------------------------------------------------------- 

 POTCAR:    PAW_PBE C 08Apr2002                   
  local pseudopotential read in
  partial core-charges read in
  partial kinetic energy density read in
  atomic valenz-charges read in
  non local Contribution for L=           0  read in
    real space projection operators read in
  non local Contribution for L=           0  read in
    real space projection operators read in
  non local Contribution for L=           1  read in
    real space projection operators read in
  non local Contribution for L=           1  read in
    real space projection operators read in
    PAW grid and wavefunctions read in
 
   number of l-projection  operators is LMAX  =           4
   number of lm-projection operators is LMMAX =           8
 
 POTCAR:    PAW_PBE H 15Jun2001                   
  local pseudopotential read in
  atomic valenz-charges read in
  non local Contribution for L=           0  read in
    real space projection operators read in
  non local Contribution for L=           0  read in
    real space projection operators read in
  non local Contribution for L=           1  read in
    real space projection operators read in
    PAW grid and wavefunctions read in
 
   number of l-projection  operators is LMAX  =           3
   number of lm-projection operators is LMMAX =           5
 
 POTCAR:    PAW_PBE O 08Apr2002                   
  local pseudopotential read in
  partial core-charges read in
  partial kinetic energy density read in
  kinetic energy density of atom read in
  atomic valenz-charges read in
  non local Contribution for L=           0  read in
    real space projection operators read in
  non local Contribution for L=           0  read in
    real space projection operators read in
  non local Contribution for L=           1  read in
    real space projection operators read in
  non local Contribution for L=           1  read in
    real space projection operators read in
    PAW grid and wavefunctions read in
 
   number of l-projection  operators is LMAX  =           4
   number of lm-projection operators is LMMAX =           8
 
 Optimization of the real space projectors (new method)

 maximal supplied QI-value         = 25.13
 optimisation between [QCUT,QGAM] = [ 10.81, 21.61] = [ 32.71,130.83] Ry 
 Optimized for a Real-space Cutoff    1.23 Angstroem

   l    n(q)    QCUT    max X(q) W(low)/X(q) W(high)/X(q)  e(spline) 
   0      8    10.807   115.676    0.36E-03    0.72E-03    0.24E-06
   0      8    10.807    87.132    0.35E-03    0.71E-03    0.24E-06
   1      7    10.807     4.429    0.19E-03    0.39E-03    0.11E-06
   1      7    10.807     2.733    0.14E-03    0.28E-03    0.13E-06
 Optimization of the real space projectors (new method)

 maximal supplied QI-value         = 34.20
 optimisation between [QCUT,QGAM] = [ 10.60, 21.55] = [ 31.48,130.03] Ry 
 Optimized for a Real-space Cutoff    1.23 Angstroem

   l    n(q)    QCUT    max X(q) W(low)/X(q) W(high)/X(q)  e(spline) 
   0      8    10.603    19.460    0.37E-03    0.59E-03    0.23E-06
   0      8    10.603    12.209    0.35E-03    0.56E-03    0.22E-06
   1      7    10.603     4.655    0.70E-04    0.28E-03    0.29E-06
 Optimization of the real space projectors (new method)

 maximal supplied QI-value         = 24.76
 optimisation between [QCUT,QGAM] = [ 10.64, 21.54] = [ 31.73,129.89] Ry 
 Optimized for a Real-space Cutoff    1.23 Angstroem

   l    n(q)    QCUT    max X(q) W(low)/X(q) W(high)/X(q)  e(spline) 
   0      8    10.645    20.381    0.38E-03    0.60E-03    0.15E-06
   0      8    10.645    15.268    0.40E-03    0.65E-03    0.17E-06
   1      7    10.645     5.964    0.30E-03    0.63E-03    0.18E-06
   1      7    10.645     5.382    0.24E-03    0.53E-03    0.16E-06
  PAW_PBE C 08Apr2002                   :
 energy of atom  1       EATOM= -147.1560
 kinetic energy error for atom=    0.0116 (will be added to EATOM!!)
  PAW_PBE H 15Jun2001                   :
 energy of atom  2       EATOM=  -12.4884
 kinetic energy error for atom=    0.0045 (will be added to EATOM!!)
  PAW_PBE O 08Apr2002                   :
 energy of atom  3       EATOM= -432.3788
 kinetic energy error for atom=    0.0389 (will be added to EATOM!!)
 
 
 POSCAR: C  H  O                                 
  positions in cartesian coordinates
  No initial velocities read in
 exchange correlation table for  LEXCH =        8
   RHO(1)=    0.500       N(1)  =     2000
   RHO(2)=  100.500       N(2)  =     4000
 


--------------------------------------------------------------------------------------------------------


 ion  position               nearest neighbor table
   1  0.135  0.162  0.335-  26 1.38   2 1.39   6 1.41
   2  0.194  0.196  0.350-  11 1.09   1 1.39   3 1.41
   3  0.199  0.264  0.337-   4 1.40   2 1.41   8 1.51
   4  0.145  0.298  0.309-  12 1.09   3 1.40   5 1.40
   5  0.086  0.264  0.294-  13 1.09   6 1.39   4 1.40
   6  0.080  0.196  0.306-  25 1.37   5 1.39   1 1.41
   7  0.176  0.057  0.375-  16 1.10  15 1.10  17 1.10  26 1.43
   8  0.264  0.300  0.351-  18 1.11  27 1.44   3 1.51   9 1.54
   9  0.320  0.276  0.304-  24 1.10  19 1.10  10 1.53   8 1.54
  10  0.386  0.313  0.315-  22 1.10  23 1.10  21 1.10   9 1.53
  11  0.236  0.170  0.373-   2 1.09
  12  0.149  0.352  0.299-   4 1.09
  13  0.043  0.291  0.272-   5 1.09
  14  0.028  0.117  0.305-  25 0.98
  15  0.189  0.078  0.425-   7 1.10
  16  0.157  0.006  0.381-   7 1.10
  17  0.221  0.057  0.343-   7 1.10
  18  0.256  0.354  0.342-   8 1.11
  19  0.327  0.222  0.312-   9 1.10
  20  0.325  0.310  0.428-  27 0.97
  21  0.407  0.304  0.365-  10 1.10
  22  0.425  0.297  0.278-  10 1.10
  23  0.380  0.368  0.308-  10 1.10
  24  0.303  0.283  0.252-   9 1.10
  25  0.022  0.163  0.292-  14 0.98   6 1.37
  26  0.123  0.095  0.345-   1 1.38   7 1.43
  27  0.281  0.290  0.420-  20 0.97   8 1.44
 
  LATTYP: Found a simple cubic cell.
 ALAT       =    20.0000000000
  
  Lattice vectors:
  
 A1 = (  20.0000000000,   0.0000000000,   0.0000000000)
 A2 = (   0.0000000000,  20.0000000000,   0.0000000000)
 A3 = (   0.0000000000,   0.0000000000,  20.0000000000)


Analysis of symmetry for initial positions (statically):
=====================================================================
 Subroutine PRICEL returns:
 Original cell was already a primitive cell.
 

 Routine SETGRP: Setting up the symmetry group for a 
 simple cubic supercell.


 Subroutine GETGRP returns: Found  1 space group operations
 (whereof  1 operations were pure point group operations)
 out of a pool of 48 trial point group operations.


The static configuration has the point symmetry C_1 .


Analysis of symmetry for dynamics (positions and initial velocities):
=====================================================================
 Subroutine PRICEL returns:
 Original cell was already a primitive cell.
 

 Routine SETGRP: Setting up the symmetry group for a 
 simple cubic supercell.


 Subroutine GETGRP returns: Found  1 space group operations
 (whereof  1 operations were pure point group operations)
 out of a pool of 48 trial point group operations.


The dynamic configuration has the point symmetry C_1 .


Analysis of constrained symmetry for selective dynamics:
=====================================================================
 Subroutine PRICEL returns:
 Original cell was already a primitive cell.
 

 Routine SETGRP: Setting up the symmetry group for a 
 simple cubic supercell.


 Subroutine GETGRP returns: Found  1 space group operations
 (whereof  1 operations were pure point group operations)
 out of a pool of 48 trial point group operations.


The constrained configuration has the point symmetry C_1 .


 Subroutine INISYM returns: Found  1 space group operations
 (whereof  1 operations are pure point group operations),
 and found     1 'primitive' translations

 
 
 KPOINTS: K-POINTS                                

Automatic generation of k-mesh.
Space group operators:
 irot       det(A)        alpha          n_x          n_y          n_z        tau_x        tau_y        tau_z
    1     1.000000     0.000000     1.000000     0.000000     0.000000     0.000000     0.000000     0.000000
 
 Subroutine IBZKPT returns following result:
 ===========================================
 
 Found      1 irreducible k-points:
 
 Following reciprocal coordinates:
            Coordinates               Weight
  0.000000  0.000000  0.000000      1.000000
 
 Following cartesian coordinates:
            Coordinates               Weight
  0.000000  0.000000  0.000000      1.000000
 


--------------------------------------------------------------------------------------------------------




 Dimension of arrays:
   k-points           NKPTS =      1   k-points in BZ     NKDIM =      1   number of bands    NBANDS=     60
   number of dos      NEDOS =    301   number of ions     NIONS =     27
   non local maximal  LDIM  =      4   non local SUM 2l+1 LMDIM =      8
   total plane-waves  NPLWV = ******
   max r-space proj   IRMAX =   1268   max aug-charges    IRDMAX=   2242
   dimension x,y,z NGX =   108 NGY =  108 NGZ =  108
   dimension x,y,z NGXF=   216 NGYF=  216 NGZF=  216
   support grid    NGXF=   216 NGYF=  216 NGZF=  216
   ions per type =              10  14   3
   NGX,Y,Z   is equivalent  to a cutoff of   8.98,  8.98,  8.98 a.u.
   NGXF,Y,Z  is equivalent  to a cutoff of  17.95, 17.95, 17.95 a.u.

 SYSTEM =  ag-1211-a                               
 POSCAR =  C  H  O                                 

 Startparameter for this run:
   NWRITE =      0    write-flag & timer
   PREC   = normal    normal or accurate (medium, high low for compatibility)
   ISTART =      0    job   : 0-new  1-cont  2-samecut
   ICHARG =      2    charge: 1-file 2-atom 10-const
   ISPIN  =      1    spin polarized calculation?
   LNONCOLLINEAR =      F non collinear calculations
   LSORBIT =      F    spin-orbit coupling
   INIWAV =      1    electr: 0-lowe 1-rand  2-diag
   LASPH  =      F    aspherical Exc in radial PAW
   METAGGA=      F    non-selfconsistent MetaGGA calc.

 Electronic Relaxation 1
   ENCUT  =  450.0 eV  33.07 Ry    5.75 a.u.  34.59 34.59 34.59*2*pi/ulx,y,z
   ENINI  =  450.0     initial cutoff
   ENAUG  =  644.9 eV  augmentation charge cutoff
   NELM   =     50;   NELMIN=  5; NELMDL= -7     # of ELM steps 
   EDIFF  = 0.1E-04   stopping-criterion for ELM
   LREAL  =      T    real-space projection
   NLSPLINE    = F    spline interpolate recip. space projectors
   LCOMPAT=      F    compatible to vasp.4.4
   GGA_COMPAT  = T    GGA compatible to vasp.4.4-vasp.4.6
   LMAXPAW     = -100 max onsite density
   LMAXMIX     =    2 max onsite mixed and CHGCAR
   VOSKOWN=      0    Vosko Wilk Nusair interpolation
   ROPT   =   -0.00050  -0.00050  -0.00050
 Ionic relaxation
   EDIFFG = -.2E-01   stopping-criterion for IOM
   NSW    =    300    number of steps for IOM
   NBLOCK =      1;   KBLOCK =    300    inner block; outer block 
   IBRION =      2    ionic relax: 0-MD 1-quasi-New 2-CG
   NFREE  =      2    steps in history (QN), initial steepest desc. (CG)
   ISIF   =      2    stress and relaxation
   IWAVPR =     11    prediction:  0-non 1-charg 2-wave 3-comb
   ISYM   =      2    0-nonsym 1-usesym 2-fastsym
   LCORR  =      T    Harris-Foulkes like correction to forces

   POTIM  = 0.1500    time-step for ionic-motion
   TEIN   =    0.0    initial temperature
   TEBEG  =    0.0;   TEEND  =   0.0 temperature during run
   SMASS  =  -3.00    Nose mass-parameter (am)
   estimated Nose-frequenzy (Omega)   =  0.10E-29 period in steps =****** mass=  -0.914E-26a.u.
   SCALEE = 1.0000    scale energy and forces
   NPACO  =    256;   APACO  = 16.0  distance and # of slots for P.C.
   PSTRESS=    0.0 pullay stress

  Mass of Ions in am
   POMASS =  12.01  1.00 16.00
  Ionic Valenz
   ZVAL   =   4.00  1.00  6.00
  Atomic Wigner-Seitz radii
   RWIGS  =  -1.00 -1.00 -1.00
  virtual crystal weights 
   VCA    =   1.00  1.00  1.00
   NELECT =      72.0000    total number of electrons
   NUPDOWN=      -1.0000    fix difference up-down

 DOS related values:
   EMIN   =  10.00;   EMAX   =-10.00  energy-range for DOS
   EFERMI =   0.00
   ISMEAR =     0;   SIGMA  =   0.03  broadening in eV -4-tet -1-fermi 0-gaus

 Electronic relaxation 2 (details)
   IALGO  =     68    algorithm
   LDIAG  =      T    sub-space diagonalisation (order eigenvalues)
   LSUBROT=      F    optimize rotation matrix (better conditioning)
   TURBO    =      0    0=normal 1=particle mesh
   IRESTART =      0    0=no restart 2=restart with 2 vectors
   NREBOOT  =      0    no. of reboots
   NMIN     =      0    reboot dimension
   EREF     =   0.00    reference energy to select bands
   IMIX   =      4    mixing-type and parameters
     AMIX     =   0.40;   BMIX     =  1.00
     AMIX_MAG =   1.60;   BMIX_MAG =  1.00
     AMIN     =   0.10
     WC   =   100.;   INIMIX=   1;  MIXPRE=   1;  MAXMIX= -45

 Intra band minimization:
   WEIMIN = 0.0010     energy-eigenvalue tresh-hold
   EBREAK =  0.42E-07  absolut break condition
   DEPER  =   0.30     relativ break condition  

   TIME   =   0.40     timestep for ELM

  volume/ion in A,a.u.               =     296.30      1999.51
  Fermi-wavevector in a.u.,A,eV,Ry     =   0.340530  0.643509  1.577743  0.115961
  Thomas-Fermi vector in A             =   1.244319
 
 Write flags
   LWAVE        =      F    write WAVECAR
   LDOWNSAMPLE  =      F    k-point downsampling of WAVECAR
   LCHARG       =      F    write CHGCAR
   LVTOT        =      F    write LOCPOT, total local potential
   LVHAR        =      F    write LOCPOT, Hartree potential only
   LELF         =      F    write electronic localiz. function (ELF)
   LORBIT       =      0    0 simple, 1 ext, 2 COOP (PROOUT), +10 PAW based schemes


 Dipole corrections
   LMONO  =      F    monopole corrections only (constant potential shift)
   LDIPOL =      F    correct potential (dipole corrections)
   IDIPOL =      0    1-x, 2-y, 3-z, 4-all directions 
   EPSILON=  1.0000000 bulk dielectric constant

 Exchange correlation treatment:
   GGA     =    PE    GGA type
   LEXCH   =     8    internal setting for exchange type
   VOSKOWN=      0    Vosko Wilk Nusair interpolation
   LHFCALC =     F    Hartree Fock is set to
   LHFONE  =     F    Hartree Fock one center treatment
   AEXX    =    0.0000 exact exchange contribution

 Linear response parameters
   LEPSILON=     F    determine dielectric tensor
   LRPA    =     F    only Hartree local field effects (RPA)
   LNABLA  =     F    use nabla operator in PAW spheres
   LVEL    =     F    velocity operator in full k-point grid
   LINTERFAST=   F  fast interpolation
   KINTER  =     0    interpolate to denser k-point grid
   CSHIFT  =0.1000    complex shift for real part using Kramers Kronig
   OMEGAMAX=  -1.0    maximum frequency
   DEG_THRESHOLD= 0.2000000E-02 threshold for treating states as degnerate
   RTIME   =   -0.100 relaxation time in fs
  (WPLASMAI=    0.000 imaginary part of plasma frequency in eV, 0.658/RTIME)
   DFIELD  = 0.0000000 0.0000000 0.0000000 field for delta impulse in time
 
 Orbital magnetization related:
   ORBITALMAG=     F  switch on orbital magnetization
   LCHIMAG   =     F  perturbation theory with respect to B field
   DQ        =  0.001000  dq finite difference perturbation B field
   LLRAUG    =     F  two centre corrections for induced B field



--------------------------------------------------------------------------------------------------------


 conjugate gradient relaxation of ions
   using selective dynamics as specified on POSCAR
   WARNING: If single coordinates had been selected the selection of coordinates
            is made according to the corresponding   d i r e c t   coordinates!
            Don't support selection of single cartesian coordinates -- sorry ...
  !
 charge density and potential will be updated during run
 non-spin polarized calculation
 RMM-DIIS sequential band-by-band and
  variant of blocked Davidson during initial phase
 perform sub-space diagonalisation
    before iterative eigenvector-optimisation
 modified Broyden-mixing scheme, WC =      100.0
 initial mixing is a Kerker type mixing with AMIX =  0.4000 and BMIX =      1.0000
 Hartree-type preconditioning will be used
 using additional bands           24
 real space projection scheme for non local part
 use partial core corrections
 calculate Harris-corrections to forces 
   (improved forces if not selfconsistent)
 use gradient corrections 
 use of overlap-Matrix (Vanderbilt PP)
 Gauss-broadening in eV      SIGMA  =   0.03


--------------------------------------------------------------------------------------------------------


  energy-cutoff  :      450.00
  volume of cell :     8000.00
      direct lattice vectors                 reciprocal lattice vectors
    20.000000000  0.000000000  0.000000000     0.050000000  0.000000000  0.000000000
     0.000000000 20.000000000  0.000000000     0.000000000  0.050000000  0.000000000
     0.000000000  0.000000000 20.000000000     0.000000000  0.000000000  0.050000000

  length of vectors
    20.000000000 20.000000000 20.000000000     0.050000000  0.050000000  0.050000000


 
 k-points in units of 2pi/SCALE and weight: K-POINTS                                
   0.00000000  0.00000000  0.00000000       1.000
 
 k-points in reciprocal lattice and weights: K-POINTS                                
   0.00000000  0.00000000  0.00000000       1.000
 
 position of ions in fractional coordinates (direct lattice) 
   0.13504626  0.16180766  0.33488304
   0.19398735  0.19559486  0.34996675
   0.19944351  0.26442999  0.33669971
   0.14512404  0.29823179  0.30888346
   0.08572405  0.26446590  0.29358995
   0.08026466  0.19635198  0.30645262
   0.17612754  0.05702651  0.37536215
   0.26429091  0.30026035  0.35062947
   0.32046385  0.27623141  0.30402304
   0.38648411  0.31336435  0.31450756
   0.23598190  0.16951947  0.37286536
   0.14900155  0.35182065  0.29921236
   0.04292597  0.29055840  0.27215871
   0.02814329  0.11662858  0.30526615
   0.18923451  0.07754951  0.42485417
   0.15722691  0.00586148  0.38069826
   0.22096288  0.05720909  0.34321829
   0.25634692  0.35442290  0.34190783
   0.32726512  0.22210196  0.31191408
   0.32474244  0.30998046  0.42775117
   0.40746509  0.30423602  0.36466908
   0.42452462  0.29694159  0.27834870
   0.37975253  0.36769435  0.30838580
   0.30320435  0.28282722  0.25212665
   0.02204444  0.16328072  0.29195457
   0.12334407  0.09469764  0.34546438
   0.28123728  0.28951624  0.42002672
 
 position of ions in cartesian coordinates  (Angst):
   2.70092511  3.23615313  6.69766084
   3.87974701  3.91189729  6.99933501
   3.98887021  5.28859972  6.73399427
   2.90248076  5.96463580  6.17766926
   1.71448096  5.28931797  5.87179899
   1.60529317  3.92703969  6.12905233
   3.52255078  1.14053023  7.50724305
   5.28581826  6.00520705  7.01258939
   6.40927696  5.52462816  6.08046076
   7.72968219  6.26728693  6.29015127
   4.71963802  3.39038948  7.45730716
   2.98003104  7.03641304  5.98424713
   0.85851935  5.81116806  5.44317426
   0.56286589  2.33257162  6.10532299
   3.78469016  1.55099018  8.49708333
   3.14453827  0.11722955  7.61396519
   4.41925755  1.14418183  6.86436583
   5.12693842  7.08845790  6.83815664
   6.54530249  4.44203927  6.23828157
   6.49484885  6.19960918  8.55502333
   8.14930186  6.08472039  7.29338155
   8.49049241  5.93883172  5.56697395
   7.59505052  7.35388703  6.16771607
   6.06408699  5.65654444  5.04253304
   0.44088871  3.26561438  5.83909139
   2.46688143  1.89395284  6.90928770
   5.62474570  5.79032474  8.40053448
 


--------------------------------------------------------------------------------------------------------


 k-point  1 :   0.0000 0.0000 0.0000  plane waves:  173541

 maximum and minimum number of plane-waves per node :    173541   173541

 maximum number of plane-waves:    173541
 maximum index in each direction: 
   IXMAX=   34   IYMAX=   34   IZMAX=   34
   IXMIN=  -34   IYMIN=  -34   IZMIN=  -34


 serial   3D FFT for wavefunctions
 parallel 3D FFT for charge:
    minimum data exchange during FFTs selected (reduces bandwidth)


 total amount of memory used by VASP MPI-rank0   184584. kBytes
=======================================================================

   base      :      30000. kBytes
   nonlr-proj:       2376. kBytes
   fftplans  :      33533. kBytes
   grid      :     104696. kBytes
   one-center:         82. kBytes
   wavefun   :      13897. kBytes
 
     INWAV:  cpu time    0.0000: real time    0.0002
 Broyden mixing: mesh for mixing (old mesh)
   NGX = 69   NGY = 69   NGZ = 69
  (NGX  =216   NGY  =216   NGZ  =216)
  gives a total of 328509 points

 initial charge density was supplied:
 charge density of overlapping atoms calculated
 number of electron      72.0000000 magnetization 
 keeping initial charge density in first step


--------------------------------------------------------------------------------------------------------


 Maximum index for non-local projection operator         1197
 Maximum index for augmentation-charges          193 (set IRDMAX)


--------------------------------------------------------------------------------------------------------


 First call to EWALD:  gamma=   0.089
 Maximum number of real-space cells 3x 3x 3
 Maximum number of reciprocal cells 3x 3x 3

    FEWALD:  cpu time    0.0030: real time    0.0026


--------------------------------------- Iteration      1(   1)  ---------------------------------------


    POTLOK:  cpu time    1.3928: real time    1.3968
    SETDIJ:  cpu time    0.0060: real time    0.0058
     EDDAV:  cpu time    5.2112: real time    5.2245
       DOS:  cpu time    0.0000: real time    0.0005
    --------------------------------------------
      LOOP:  cpu time    6.6100: real time    6.6276

 eigenvalue-minimisations  :   144
 total energy-change (2. order) : 0.6473352E+03  (-0.1504291E+04)
 number of electron      72.0000000 magnetization 
 augmentation part       72.0000000 magnetization 

 Free energy of the ion-electron system (eV)
  ---------------------------------------------------
  alpha Z        PSCENC =         2.78055327
  Ewald energy   TEWEN  =      6512.17985003
  -Hartree energ DENC   =     -8619.70039908
  -exchange      EXHF   =         0.00000000
  -V(xc)+E(xc)   XCENC  =       247.25725537
  PAW double counting   =      2154.74527858    -2165.95963764
  entropy T*S    EENTRO =        -0.00299815
  eigenvalues    EBANDS =      -427.20258837
  atomic energy  EATOM  =      2943.23792529
  Solvation  Ediel_sol  =         0.00000000
  ---------------------------------------------------
  free energy    TOTEN  =       647.33523928 eV

  energy without entropy =      647.33823744  energy(sigma->0) =      647.33673836


--------------------------------------------------------------------------------------------------------




--------------------------------------- Iteration      1(   2)  ---------------------------------------


     EDDAV:  cpu time    7.1979: real time    7.2135
       DOS:  cpu time    0.0000: real time    0.0004
    --------------------------------------------
      LOOP:  cpu time    7.1979: real time    7.2139

 eigenvalue-minimisations  :   216
 total energy-change (2. order) :-0.4841557E+03  (-0.4452147E+03)
 number of electron      72.0000000 magnetization 
 augmentation part       72.0000000 magnetization 

 Free energy of the ion-electron system (eV)
  ---------------------------------------------------
  alpha Z        PSCENC =         2.78055327
  Ewald energy   TEWEN  =      6512.17985003
  -Hartree energ DENC   =     -8619.70039908
  -exchange      EXHF   =         0.00000000
  -V(xc)+E(xc)   XCENC  =       247.25725537
  PAW double counting   =      2154.74527858    -2165.95963764
  entropy T*S    EENTRO =        -0.00000000
  eigenvalues    EBANDS =      -911.36125589
  atomic energy  EATOM  =      2943.23792529
  Solvation  Ediel_sol  =         0.00000000
  ---------------------------------------------------
  free energy    TOTEN  =       163.17956992 eV

  energy without entropy =      163.17956992  energy(sigma->0) =      163.17956992


--------------------------------------------------------------------------------------------------------




--------------------------------------- Iteration      1(   3)  ---------------------------------------


     EDDAV:  cpu time    6.5350: real time    6.5490
       DOS:  cpu time    0.0010: real time    0.0004
    --------------------------------------------
      LOOP:  cpu time    6.5360: real time    6.5494

 eigenvalue-minimisations  :   192
 total energy-change (2. order) :-0.3042621E+03  (-0.2997440E+03)
 number of electron      72.0000000 magnetization 
 augmentation part       72.0000000 magnetization 

 Free energy of the ion-electron system (eV)
  ---------------------------------------------------
  alpha Z        PSCENC =         2.78055327
  Ewald energy   TEWEN  =      6512.17985003
  -Hartree energ DENC   =     -8619.70039908
  -exchange      EXHF   =         0.00000000
  -V(xc)+E(xc)   XCENC  =       247.25725537
  PAW double counting   =      2154.74527858    -2165.95963764
  entropy T*S    EENTRO =        -0.00000000
  eigenvalues    EBANDS =     -1215.62332793
  atomic energy  EATOM  =      2943.23792529
  Solvation  Ediel_sol  =         0.00000000
  ---------------------------------------------------
  free energy    TOTEN  =      -141.08250212 eV

  energy without entropy =     -141.08250212  energy(sigma->0) =     -141.08250212


--------------------------------------------------------------------------------------------------------




--------------------------------------- Iteration      1(   4)  ---------------------------------------


     EDDAV:  cpu time    5.8591: real time    5.8739
       DOS:  cpu time    0.0000: real time    0.0004
    --------------------------------------------
      LOOP:  cpu time    5.8591: real time    5.8743

 eigenvalue-minimisations  :   168
 total energy-change (2. order) :-0.3519739E+02  (-0.3502465E+02)
 number of electron      72.0000000 magnetization 
 augmentation part       72.0000000 magnetization 

 Free energy of the ion-electron system (eV)
  ---------------------------------------------------
  alpha Z        PSCENC =         2.78055327
  Ewald energy   TEWEN  =      6512.17985003
  -Hartree energ DENC   =     -8619.70039908
  -exchange      EXHF   =         0.00000000
  -V(xc)+E(xc)   XCENC  =       247.25725537
  PAW double counting   =      2154.74527858    -2165.95963764
  entropy T*S    EENTRO =        -0.00000000
  eigenvalues    EBANDS =     -1250.82071838
  atomic energy  EATOM  =      2943.23792529
  Solvation  Ediel_sol  =         0.00000000
  ---------------------------------------------------
  free energy    TOTEN  =      -176.27989257 eV

  energy without entropy =     -176.27989257  energy(sigma->0) =     -176.27989257


--------------------------------------------------------------------------------------------------------




--------------------------------------- Iteration      1(   5)  ---------------------------------------


     EDDAV:  cpu time    5.1772: real time    5.1912
       DOS:  cpu time    0.0010: real time    0.0004
    --------------------------------------------
      LOOP:  cpu time    5.1782: real time    5.1916

 eigenvalue-minimisations  :   144
 total energy-change (2. order) :-0.6415126E+00  (-0.6353665E+00)
 number of electron      72.0000000 magnetization 
 augmentation part       72.0000000 magnetization 

 Free energy of the ion-electron system (eV)
  ---------------------------------------------------
  alpha Z        PSCENC =         2.78055327
  Ewald energy   TEWEN  =      6512.17985003
  -Hartree energ DENC   =     -8619.70039908
  -exchange      EXHF   =         0.00000000
  -V(xc)+E(xc)   XCENC  =       247.25725537
  PAW double counting   =      2154.74527858    -2165.95963764
  entropy T*S    EENTRO =        -0.00000000
  eigenvalues    EBANDS =     -1251.46223095
  atomic energy  EATOM  =      2943.23792529
  Solvation  Ediel_sol  =         0.00000000
  ---------------------------------------------------
  free energy    TOTEN  =      -176.92140514 eV

  energy without entropy =     -176.92140514  energy(sigma->0) =     -176.92140514


--------------------------------------------------------------------------------------------------------




--------------------------------------- Iteration      1(   6)  ---------------------------------------


     EDDAV:  cpu time    6.1631: real time    6.1783
       DOS:  cpu time    0.0000: real time    0.0004
    --------------------------------------------
      LOOP:  cpu time    6.1631: real time    6.1787

 eigenvalue-minimisations  :   180
 total energy-change (2. order) :-0.2317628E-01  (-0.2314516E-01)
 number of electron      72.0000000 magnetization 
 augmentation part       72.0000000 magnetization 

 Free energy of the ion-electron system (eV)
  ---------------------------------------------------
  alpha Z        PSCENC =         2.78055327
  Ewald energy   TEWEN  =      6512.17985003
  -Hartree energ DENC   =     -8619.70039908
  -exchange      EXHF   =         0.00000000
  -V(xc)+E(xc)   XCENC  =       247.25725537
  PAW double counting   =      2154.74527858    -2165.95963764
  entropy T*S    EENTRO =        -0.00000000
  eigenvalues    EBANDS =     -1251.48540723
  atomic energy  EATOM  =      2943.23792529
  Solvation  Ediel_sol  =         0.00000000
  ---------------------------------------------------
  free energy    TOTEN  =      -176.94458142 eV

  energy without entropy =     -176.94458142  energy(sigma->0) =     -176.94458142


--------------------------------------------------------------------------------------------------------




--------------------------------------- Iteration      1(   7)  ---------------------------------------


     EDDAV:  cpu time    6.1861: real time    6.2002
       DOS:  cpu time    0.0000: real time    0.0004
    CHARGE:  cpu time    0.4299: real time    0.4306
    MIXING:  cpu time    0.0340: real time    0.0343
    --------------------------------------------
      LOOP:  cpu time    6.6500: real time    6.6656

 eigenvalue-minimisations  :   180
 total energy-change (2. order) :-0.3976402E-03  (-0.3974530E-03)
 number of electron      72.0000044 magnetization 
 augmentation part        3.5740027 magnetization 

 Broyden mixing:
  rms(total) = 0.20998E+01    rms(broyden)= 0.20981E+01
  rms(prec ) = 0.22897E+01
  weight for this iteration     100.00

 Free energy of the ion-electron system (eV)
  ---------------------------------------------------
  alpha Z        PSCENC =         2.78055327
  Ewald energy   TEWEN  =      6512.17985003
  -Hartree energ DENC   =     -8619.70039908
  -exchange      EXHF   =         0.00000000
  -V(xc)+E(xc)   XCENC  =       247.25725537
  PAW double counting   =      2154.74527858    -2165.95963764
  entropy T*S    EENTRO =        -0.00000000
  eigenvalues    EBANDS =     -1251.48580487
  atomic energy  EATOM  =      2943.23792529
  Solvation  Ediel_sol  =         0.00000000
  ---------------------------------------------------
  free energy    TOTEN  =      -176.94497906 eV

  energy without entropy =     -176.94497906  energy(sigma->0) =     -176.94497906


--------------------------------------------------------------------------------------------------------




--------------------------------------- Iteration      1(   8)  ---------------------------------------


    POTLOK:  cpu time    1.2768: real time    1.2797
    SETDIJ:  cpu time    0.0060: real time    0.0058
    EDDIAG:  cpu time    0.9189: real time    0.9213
  RMM-DIIS:  cpu time    3.1735: real time    3.1799
    ORTHCH:  cpu time    0.1640: real time    0.1641
       DOS:  cpu time    0.0000: real time    0.0002
    CHARGE:  cpu time    0.4179: real time    0.4189
    MIXING:  cpu time    0.0380: real time    0.0376
    --------------------------------------------
      LOOP:  cpu time    5.9951: real time    6.0076

 eigenvalue-minimisations  :   120
 total energy-change (2. order) : 0.1212049E+02  (-0.2076607E+01)
 number of electron      72.0000041 magnetization 
 augmentation part        3.3128396 magnetization 

 Broyden mixing:
  rms(total) = 0.11115E+01    rms(broyden)= 0.11113E+01
  rms(prec ) = 0.11921E+01
  weight for this iteration     100.00

 eigenvalues of (default mixing * dielectric matrix)
  average eigenvalue GAMMA=   1.4952
  1.4952

 Free energy of the ion-electron system (eV)
  ---------------------------------------------------
  alpha Z        PSCENC =         2.78055327
  Ewald energy   TEWEN  =      6512.17985003
  -Hartree energ DENC   =     -8759.22993033
  -exchange      EXHF   =         0.00000000
  -V(xc)+E(xc)   XCENC  =       254.08205848
  PAW double counting   =      3340.63436168    -3353.49553135
  entropy T*S    EENTRO =        -0.00000000
  eigenvalues    EBANDS =     -1105.01377607
  atomic energy  EATOM  =      2943.23792529
  Solvation  Ediel_sol  =         0.00000000
  ---------------------------------------------------
  free energy    TOTEN  =      -164.82448901 eV

  energy without entropy =     -164.82448901  energy(sigma->0) =     -164.82448901


--------------------------------------------------------------------------------------------------------




--------------------------------------- Iteration      1(   9)  ---------------------------------------


    POTLOK:  cpu time    1.2798: real time    1.2831
    SETDIJ:  cpu time    0.0060: real time    0.0058
    EDDIAG:  cpu time    0.9179: real time    0.9214
  RMM-DIIS:  cpu time    3.1635: real time    3.1709
    ORTHCH:  cpu time    0.1650: real time    0.1650
       DOS:  cpu time    0.0000: real time    0.0003
    CHARGE:  cpu time    0.4199: real time    0.4201
    MIXING:  cpu time    0.0380: real time    0.0387
    --------------------------------------------
      LOOP:  cpu time    5.9901: real time    6.0052

 eigenvalue-minimisations  :   120
 total energy-change (2. order) : 0.2786902E+01  (-0.7401196E+00)
 number of electron      72.0000039 magnetization 
 augmentation part        3.2153242 magnetization 

 Broyden mixing:
  rms(total) = 0.48681E+00    rms(broyden)= 0.48667E+00
  rms(prec ) = 0.51348E+00
  weight for this iteration     100.00

 eigenvalues of (default mixing * dielectric matrix)
  average eigenvalue GAMMA=   1.7007
  1.2875  2.1139

 Free energy of the ion-electron system (eV)
  ---------------------------------------------------
  alpha Z        PSCENC =         2.78055327
  Ewald energy   TEWEN  =      6512.17985003
  -Hartree energ DENC   =     -8859.85222813
  -exchange      EXHF   =         0.00000000
  -V(xc)+E(xc)   XCENC  =       259.01489398
  PAW double counting   =      4739.87105883    -4753.35070368
  entropy T*S    EENTRO =        -0.00000000
  eigenvalues    EBANDS =     -1005.91893621
  atomic energy  EATOM  =      2943.23792529
  Solvation  Ediel_sol  =         0.00000000
  ---------------------------------------------------
  free energy    TOTEN  =      -162.03758664 eV

  energy without entropy =     -162.03758664  energy(sigma->0) =     -162.03758664


--------------------------------------------------------------------------------------------------------




--------------------------------------- Iteration      1(  10)  ---------------------------------------


    POTLOK:  cpu time    1.2888: real time    1.2928
    SETDIJ:  cpu time    0.0070: real time    0.0067
    EDDIAG:  cpu time    0.9139: real time    0.9157
  RMM-DIIS:  cpu time    3.2105: real time    3.2183
    ORTHCH:  cpu time    0.1650: real time    0.1653
       DOS:  cpu time    0.0000: real time    0.0002
    CHARGE:  cpu time    0.4149: real time    0.4182
    MIXING:  cpu time    0.0420: real time    0.0414
    --------------------------------------------
      LOOP:  cpu time    6.0421: real time    6.0586

 eigenvalue-minimisations  :   120
 total energy-change (2. order) : 0.4060067E+00  (-0.9522915E-01)
 number of electron      72.0000039 magnetization 
 augmentation part        3.1964683 magnetization 

 Broyden mixing:
  rms(total) = 0.13381E+00    rms(broyden)= 0.13373E+00
  rms(prec ) = 0.15311E+00
  weight for this iteration     100.00

 eigenvalues of (default mixing * dielectric matrix)
  average eigenvalue GAMMA=   1.6767
  1.0747  2.2274  1.7280

 Free energy of the ion-electron system (eV)
  ---------------------------------------------------
  alpha Z        PSCENC =         2.78055327
  Ewald energy   TEWEN  =      6512.17985003
  -Hartree energ DENC   =     -8901.80300153
  -exchange      EXHF   =         0.00000000
  -V(xc)+E(xc)   XCENC  =       261.07294486
  PAW double counting   =      5616.52822161    -5629.93378106
  entropy T*S    EENTRO =        -0.00000000
  eigenvalues    EBANDS =      -965.69429245
  atomic energy  EATOM  =      2943.23792529
  Solvation  Ediel_sol  =         0.00000000
  ---------------------------------------------------
  free energy    TOTEN  =      -161.63157998 eV

  energy without entropy =     -161.63157998  energy(sigma->0) =     -161.63157998


--------------------------------------------------------------------------------------------------------




--------------------------------------- Iteration      1(  11)  ---------------------------------------


    POTLOK:  cpu time    1.3038: real time    1.3066
    SETDIJ:  cpu time    0.0060: real time    0.0059
    EDDIAG:  cpu time    0.9139: real time    0.9163
  RMM-DIIS:  cpu time    3.3085: real time    3.3157
    ORTHCH:  cpu time    0.1650: real time    0.1653
       DOS:  cpu time    0.0000: real time    0.0002
    CHARGE:  cpu time    0.4189: real time    0.4192
    MIXING:  cpu time    0.0430: real time    0.0440
    --------------------------------------------
      LOOP:  cpu time    6.1601: real time    6.1731

 eigenvalue-minimisations  :   122
 total energy-change (2. order) : 0.6361590E-01  (-0.1045285E-01)
 number of electron      72.0000039 magnetization 
 augmentation part        3.1903470 magnetization 

 Broyden mixing:
  rms(total) = 0.41346E-01    rms(broyden)= 0.41324E-01
  rms(prec ) = 0.63751E-01
  weight for this iteration     100.00

 eigenvalues of (default mixing * dielectric matrix)
  average eigenvalue GAMMA=   1.6877
  2.1859  2.1859  1.0829  1.2960

 Free energy of the ion-electron system (eV)
  ---------------------------------------------------
  alpha Z        PSCENC =         2.78055327
  Ewald energy   TEWEN  =      6512.17985003
  -Hartree energ DENC   =     -8914.70688886
  -exchange      EXHF   =         0.00000000
  -V(xc)+E(xc)   XCENC  =       261.44793043
  PAW double counting   =      5793.79278707    -5807.08128841
  entropy T*S    EENTRO =        -0.00000000
  eigenvalues    EBANDS =      -953.21883289
  atomic energy  EATOM  =      2943.23792529
  Solvation  Ediel_sol  =         0.00000000
  ---------------------------------------------------
  free energy    TOTEN  =      -161.56796408 eV

  energy without entropy =     -161.56796408  energy(sigma->0) =     -161.56796408


--------------------------------------------------------------------------------------------------------




--------------------------------------- Iteration      1(  12)  ---------------------------------------


    POTLOK:  cpu time    1.3048: real time    1.3076
    SETDIJ:  cpu time    0.0060: real time    0.0058
    EDDIAG:  cpu time    0.9169: real time    0.9186
  RMM-DIIS:  cpu time    3.3165: real time    3.3258
    ORTHCH:  cpu time    0.1640: real time    0.1645
       DOS:  cpu time    0.0010: real time    0.0008
    CHARGE:  cpu time    0.4189: real time    0.4196
    MIXING:  cpu time    0.0470: real time    0.0467
    --------------------------------------------
      LOOP:  cpu time    6.1741: real time    6.1894

 eigenvalue-minimisations  :   121
 total energy-change (2. order) : 0.1532036E-01  (-0.1844857E-02)
 number of electron      72.0000039 magnetization 
 augmentation part        3.1887990 magnetization 

 Broyden mixing:
  rms(total) = 0.19394E-01    rms(broyden)= 0.19390E-01
  rms(prec ) = 0.39376E-01
  weight for this iteration     100.00

 eigenvalues of (default mixing * dielectric matrix)
  average eigenvalue GAMMA=   1.7123
  2.3909  2.3909  1.0228  1.2531  1.5036

 Free energy of the ion-electron system (eV)
  ---------------------------------------------------
  alpha Z        PSCENC =         2.78055327
  Ewald energy   TEWEN  =      6512.17985003
  -Hartree energ DENC   =     -8924.72835544
  -exchange      EXHF   =         0.00000000
  -V(xc)+E(xc)   XCENC  =       261.55110829
  PAW double counting   =      5778.38690637    -5791.63796453
  entropy T*S    EENTRO =        -0.00000000
  eigenvalues    EBANDS =      -943.32266698
  atomic energy  EATOM  =      2943.23792529
  Solvation  Ediel_sol  =         0.00000000
  ---------------------------------------------------
  free energy    TOTEN  =      -161.55264372 eV

  energy without entropy =     -161.55264372  energy(sigma->0) =     -161.55264372


--------------------------------------------------------------------------------------------------------




--------------------------------------- Iteration      1(  13)  ---------------------------------------


    POTLOK:  cpu time    1.3098: real time    1.3137
    SETDIJ:  cpu time    0.0070: real time    0.0067
    EDDIAG:  cpu time    0.9199: real time    0.9217
  RMM-DIIS:  cpu time    3.1765: real time    3.1835
    ORTHCH:  cpu time    0.1650: real time    0.1654
       DOS:  cpu time    0.0010: real time    0.0005
    CHARGE:  cpu time    0.4169: real time    0.4180
    MIXING:  cpu time    0.0500: real time    0.0500
    --------------------------------------------
      LOOP:  cpu time    6.0461: real time    6.0595

 eigenvalue-minimisations  :   120
 total energy-change (2. order) : 0.5078983E-02  (-0.1159165E-02)
 number of electron      72.0000039 magnetization 
 augmentation part        3.1873569 magnetization 

 Broyden mixing:
  rms(total) = 0.11934E-01    rms(broyden)= 0.11931E-01
  rms(prec ) = 0.24888E-01
  weight for this iteration     100.00

 eigenvalues of (default mixing * dielectric matrix)
  average eigenvalue GAMMA=   1.9103
  3.5272  2.4696  1.0070  1.1612  1.6484  1.6484

 Free energy of the ion-electron system (eV)
  ---------------------------------------------------
  alpha Z        PSCENC =         2.78055327
  Ewald energy   TEWEN  =      6512.17985003
  -Hartree energ DENC   =     -8935.41766753
  -exchange      EXHF   =         0.00000000
  -V(xc)+E(xc)   XCENC  =       261.70775921
  PAW double counting   =      5774.09163995    -5787.33615627
  entropy T*S    EENTRO =        -0.00000000
  eigenvalues    EBANDS =      -932.79146867
  atomic energy  EATOM  =      2943.23792529
  Solvation  Ediel_sol  =         0.00000000
  ---------------------------------------------------
  free energy    TOTEN  =      -161.54756473 eV

  energy without entropy =     -161.54756473  energy(sigma->0) =     -161.54756473


--------------------------------------------------------------------------------------------------------




--------------------------------------- Iteration      1(  14)  ---------------------------------------


    POTLOK:  cpu time    1.3128: real time    1.3180
    SETDIJ:  cpu time    0.0060: real time    0.0062
    EDDIAG:  cpu time    0.9209: real time    0.9225
  RMM-DIIS:  cpu time    3.1605: real time    3.1673
    ORTHCH:  cpu time    0.1650: real time    0.1655
       DOS:  cpu time    0.0000: real time    0.0002
    CHARGE:  cpu time    0.4179: real time    0.4182
    MIXING:  cpu time    0.0530: real time    0.0528
    --------------------------------------------
      LOOP:  cpu time    6.0361: real time    6.0505

 eigenvalue-minimisations  :   120
 total energy-change (2. order) :-0.2690238E-02  (-0.1256512E-02)
 number of electron      72.0000039 magnetization 
 augmentation part        3.1851773 magnetization 

 Broyden mixing:
  rms(total) = 0.67932E-02    rms(broyden)= 0.67865E-02
  rms(prec ) = 0.12054E-01
  weight for this iteration     100.00

 eigenvalues of (default mixing * dielectric matrix)
  average eigenvalue GAMMA=   1.8840
  4.0481  2.3241  1.7785  1.6192  0.9980  1.2100  1.2100

 Free energy of the ion-electron system (eV)
  ---------------------------------------------------
  alpha Z        PSCENC =         2.78055327
  Ewald energy   TEWEN  =      6512.17985003
  -Hartree energ DENC   =     -8946.54005149
  -exchange      EXHF   =         0.00000000
  -V(xc)+E(xc)   XCENC  =       261.82932445
  PAW double counting   =      5752.95462216    -5766.19677743
  entropy T*S    EENTRO =        -0.00000000
  eigenvalues    EBANDS =      -921.79570125
  atomic energy  EATOM  =      2943.23792529
  Solvation  Ediel_sol  =         0.00000000
  ---------------------------------------------------
  free energy    TOTEN  =      -161.55025497 eV

  energy without entropy =     -161.55025497  energy(sigma->0) =     -161.55025497


--------------------------------------------------------------------------------------------------------




--------------------------------------- Iteration      1(  15)  ---------------------------------------


    POTLOK:  cpu time    1.3148: real time    1.3207
    SETDIJ:  cpu time    0.0070: real time    0.0071
    EDDIAG:  cpu time    0.9219: real time    0.9235
  RMM-DIIS:  cpu time    3.3235: real time    3.3332
    ORTHCH:  cpu time    0.1660: real time    0.1659
       DOS:  cpu time    0.0000: real time    0.0002
    CHARGE:  cpu time    0.4189: real time    0.4190
    MIXING:  cpu time    0.0570: real time    0.0574
    --------------------------------------------
      LOOP:  cpu time    6.2091: real time    6.2270

 eigenvalue-minimisations  :   123
 total energy-change (2. order) :-0.7814178E-02  (-0.2049023E-03)
 number of electron      72.0000039 magnetization 
 augmentation part        3.1846823 magnetization 

 Broyden mixing:
  rms(total) = 0.42875E-02    rms(broyden)= 0.42845E-02
  rms(prec ) = 0.80728E-02
  weight for this iteration     100.00

 eigenvalues of (default mixing * dielectric matrix)
  average eigenvalue GAMMA=   2.1529
  5.8359  2.6721  2.0808  2.0808  1.4593  1.1442  1.0183  0.9314

 Free energy of the ion-electron system (eV)
  ---------------------------------------------------
  alpha Z        PSCENC =         2.78055327
  Ewald energy   TEWEN  =      6512.17985003
  -Hartree energ DENC   =     -8949.22852999
  -exchange      EXHF   =         0.00000000
  -V(xc)+E(xc)   XCENC  =       261.84558427
  PAW double counting   =      5754.20255132    -5767.44337269
  entropy T*S    EENTRO =        -0.00000000
  eigenvalues    EBANDS =      -919.13263064
  atomic energy  EATOM  =      2943.23792529
  Solvation  Ediel_sol  =         0.00000000
  ---------------------------------------------------
  free energy    TOTEN  =      -161.55806915 eV

  energy without entropy =     -161.55806915  energy(sigma->0) =     -161.55806915


--------------------------------------------------------------------------------------------------------




--------------------------------------- Iteration      1(  16)  ---------------------------------------


    POTLOK:  cpu time    1.3138: real time    1.3166
    SETDIJ:  cpu time    0.0060: real time    0.0064
    EDDIAG:  cpu time    0.9169: real time    0.9191
  RMM-DIIS:  cpu time    3.2195: real time    3.2261
    ORTHCH:  cpu time    0.1650: real time    0.1662
       DOS:  cpu time    0.0010: real time    0.0003
    CHARGE:  cpu time    0.4169: real time    0.4179
    MIXING:  cpu time    0.0610: real time    0.0612
    --------------------------------------------
      LOOP:  cpu time    6.1001: real time    6.1137

 eigenvalue-minimisations  :   120
 total energy-change (2. order) :-0.1178362E-01  (-0.1820012E-03)
 number of electron      72.0000039 magnetization 
 augmentation part        3.1847200 magnetization 

 Broyden mixing:
  rms(total) = 0.27305E-02    rms(broyden)= 0.27297E-02
  rms(prec ) = 0.44064E-02
  weight for this iteration     100.00

 eigenvalues of (default mixing * dielectric matrix)
  average eigenvalue GAMMA=   2.1023
  5.6827  2.8683  2.3274  1.6379  1.6379  1.6601  1.1669  1.0134  0.9259

 Free energy of the ion-electron system (eV)
  ---------------------------------------------------
  alpha Z        PSCENC =         2.78055327
  Ewald energy   TEWEN  =      6512.17985003
  -Hartree energ DENC   =     -8951.31209341
  -exchange      EXHF   =         0.00000000
  -V(xc)+E(xc)   XCENC  =       261.82831364
  PAW double counting   =      5750.38009857    -5763.61866315
  entropy T*S    EENTRO =        -0.00000000
  eigenvalues    EBANDS =      -917.04583699
  atomic energy  EATOM  =      2943.23792529
  Solvation  Ediel_sol  =         0.00000000
  ---------------------------------------------------
  free energy    TOTEN  =      -161.56985277 eV

  energy without entropy =     -161.56985277  energy(sigma->0) =     -161.56985277


--------------------------------------------------------------------------------------------------------




--------------------------------------- Iteration      1(  17)  ---------------------------------------


    POTLOK:  cpu time    1.3128: real time    1.3156
    SETDIJ:  cpu time    0.0070: real time    0.0071
    EDDIAG:  cpu time    0.9159: real time    0.9184
  RMM-DIIS:  cpu time    3.3015: real time    3.3105
    ORTHCH:  cpu time    0.1660: real time    0.1654
       DOS:  cpu time    0.0000: real time    0.0002
    CHARGE:  cpu time    0.4149: real time    0.4166
    MIXING:  cpu time    0.0690: real time    0.0685
    --------------------------------------------
      LOOP:  cpu time    6.1871: real time    6.2023

 eigenvalue-minimisations  :   120
 total energy-change (2. order) :-0.4631300E-02  (-0.7522645E-04)
 number of electron      72.0000039 magnetization 
 augmentation part        3.1841378 magnetization 

 Broyden mixing:
  rms(total) = 0.21749E-02    rms(broyden)= 0.21741E-02
  rms(prec ) = 0.32204E-02
  weight for this iteration     100.00

 eigenvalues of (default mixing * dielectric matrix)
  average eigenvalue GAMMA=   2.2465
  6.7537  3.7280  2.3220  2.3220  1.9208  1.4384  1.0355  1.0355  1.0000  0.9094

 Free energy of the ion-electron system (eV)
  ---------------------------------------------------
  alpha Z        PSCENC =         2.78055327
  Ewald energy   TEWEN  =      6512.17985003
  -Hartree energ DENC   =     -8951.80657113
  -exchange      EXHF   =         0.00000000
  -V(xc)+E(xc)   XCENC  =       261.82749342
  PAW double counting   =      5752.18817416    -5765.42893328
  entropy T*S    EENTRO =        -0.00000000
  eigenvalues    EBANDS =      -916.55297581
  atomic energy  EATOM  =      2943.23792529
  Solvation  Ediel_sol  =         0.00000000
  ---------------------------------------------------
  free energy    TOTEN  =      -161.57448407 eV

  energy without entropy =     -161.57448407  energy(sigma->0) =     -161.57448407


--------------------------------------------------------------------------------------------------------




--------------------------------------- Iteration      1(  18)  ---------------------------------------


    POTLOK:  cpu time    1.3178: real time    1.3209
    SETDIJ:  cpu time    0.0060: real time    0.0059
    EDDIAG:  cpu time    0.9109: real time    0.9131
  RMM-DIIS:  cpu time    3.1765: real time    3.1826
    ORTHCH:  cpu time    0.1650: real time    0.1663
       DOS:  cpu time    0.0010: real time    0.0002
    CHARGE:  cpu time    0.4139: real time    0.4157
    MIXING:  cpu time    0.0750: real time    0.0745
    --------------------------------------------
      LOOP:  cpu time    6.0661: real time    6.0792

 eigenvalue-minimisations  :   117
 total energy-change (2. order) :-0.4125655E-02  (-0.6275331E-04)
 number of electron      72.0000039 magnetization 
 augmentation part        3.1843128 magnetization 

 Broyden mixing:
  rms(total) = 0.11032E-02    rms(broyden)= 0.11030E-02
  rms(prec ) = 0.15935E-02
  weight for this iteration     100.00

 eigenvalues of (default mixing * dielectric matrix)
  average eigenvalue GAMMA=   2.2158
  7.0432  4.1391  2.3740  2.3740  1.7427  1.3447  1.3447  1.0854  0.9930  0.9663
  0.9663

 Free energy of the ion-electron system (eV)
  ---------------------------------------------------
  alpha Z        PSCENC =         2.78055327
  Ewald energy   TEWEN  =      6512.17985003
  -Hartree energ DENC   =     -8951.95786165
  -exchange      EXHF   =         0.00000000
  -V(xc)+E(xc)   XCENC  =       261.81129892
  PAW double counting   =      5752.29539124    -5765.53441191
  entropy T*S    EENTRO =        -0.00000000
  eigenvalues    EBANDS =      -916.39135490
  atomic energy  EATOM  =      2943.23792529
  Solvation  Ediel_sol  =         0.00000000
  ---------------------------------------------------
  free energy    TOTEN  =      -161.57860972 eV

  energy without entropy =     -161.57860972  energy(sigma->0) =     -161.57860972


--------------------------------------------------------------------------------------------------------




--------------------------------------- Iteration      1(  19)  ---------------------------------------


    POTLOK:  cpu time    1.3138: real time    1.3190
    SETDIJ:  cpu time    0.0060: real time    0.0058
    EDDIAG:  cpu time    0.9079: real time    0.9098
  RMM-DIIS:  cpu time    3.1175: real time    3.1241
    ORTHCH:  cpu time    0.1660: real time    0.1657
       DOS:  cpu time    0.0000: real time    0.0003
    CHARGE:  cpu time    0.4169: real time    0.4175
    MIXING:  cpu time    0.0770: real time    0.0780
    --------------------------------------------
      LOOP:  cpu time    6.0051: real time    6.0202

 eigenvalue-minimisations  :   112
 total energy-change (2. order) :-0.8034042E-03  (-0.1413579E-04)
 number of electron      72.0000039 magnetization 
 augmentation part        3.1843683 magnetization 

 Broyden mixing:
  rms(total) = 0.69564E-03    rms(broyden)= 0.69532E-03
  rms(prec ) = 0.10602E-02
  weight for this iteration     100.00

 eigenvalues of (default mixing * dielectric matrix)
  average eigenvalue GAMMA=   2.3278
  7.5780  5.0501  2.6614  2.2561  2.2561  1.7052  1.1465  1.1465  1.1257  1.0986
  0.9543  0.9543

 Free energy of the ion-electron system (eV)
  ---------------------------------------------------
  alpha Z        PSCENC =         2.78055327
  Ewald energy   TEWEN  =      6512.17985003
  -Hartree energ DENC   =     -8952.05664485
  -exchange      EXHF   =         0.00000000
  -V(xc)+E(xc)   XCENC  =       261.81065476
  PAW double counting   =      5752.93637524    -5766.17459975
  entropy T*S    EENTRO =        -0.00000000
  eigenvalues    EBANDS =      -916.29352710
  atomic energy  EATOM  =      2943.23792529
  Solvation  Ediel_sol  =         0.00000000
  ---------------------------------------------------
  free energy    TOTEN  =      -161.57941313 eV

  energy without entropy =     -161.57941313  energy(sigma->0) =     -161.57941313


--------------------------------------------------------------------------------------------------------




--------------------------------------- Iteration      1(  20)  ---------------------------------------


    POTLOK:  cpu time    1.3058: real time    1.3096
    SETDIJ:  cpu time    0.0060: real time    0.0059
    EDDIAG:  cpu time    0.9089: real time    0.9112
  RMM-DIIS:  cpu time    2.9835: real time    2.9913
    ORTHCH:  cpu time    0.1640: real time    0.1647
       DOS:  cpu time    0.0010: real time    0.0007
    CHARGE:  cpu time    0.4159: real time    0.4169
    MIXING:  cpu time    0.0840: real time    0.0844
    --------------------------------------------
      LOOP:  cpu time    5.8691: real time    5.8847

 eigenvalue-minimisations  :   105
 total energy-change (2. order) :-0.9572059E-03  (-0.7539909E-05)
 number of electron      72.0000039 magnetization 
 augmentation part        3.1842678 magnetization 

 Broyden mixing:
  rms(total) = 0.36205E-03    rms(broyden)= 0.36189E-03
  rms(prec ) = 0.52526E-03
  weight for this iteration     100.00

 eigenvalues of (default mixing * dielectric matrix)
  average eigenvalue GAMMA=   2.2943
  7.8263  5.2442  2.8615  2.4302  2.0807  1.8410  1.2704  1.2704  1.1350  0.9922
  0.9132  0.9805  0.9805

 Free energy of the ion-electron system (eV)
  ---------------------------------------------------
  alpha Z        PSCENC =         2.78055327
  Ewald energy   TEWEN  =      6512.17985003
  -Hartree energ DENC   =     -8952.11688797
  -exchange      EXHF   =         0.00000000
  -V(xc)+E(xc)   XCENC  =       261.80999821
  PAW double counting   =      5752.33374497    -5765.57269011
  entropy T*S    EENTRO =        -0.00000000
  eigenvalues    EBANDS =      -916.23286400
  atomic energy  EATOM  =      2943.23792529
  Solvation  Ediel_sol  =         0.00000000
  ---------------------------------------------------
  free energy    TOTEN  =      -161.58037033 eV

  energy without entropy =     -161.58037033  energy(sigma->0) =     -161.58037033


--------------------------------------------------------------------------------------------------------




--------------------------------------- Iteration      1(  21)  ---------------------------------------


    POTLOK:  cpu time    1.3058: real time    1.3088
    SETDIJ:  cpu time    0.0060: real time    0.0060
    EDDIAG:  cpu time    0.9119: real time    0.9139
  RMM-DIIS:  cpu time    2.4526: real time    2.4578
    ORTHCH:  cpu time    0.1650: real time    0.1658
       DOS:  cpu time    0.0010: real time    0.0002
    CHARGE:  cpu time    0.4139: real time    0.4151
    MIXING:  cpu time    0.0930: real time    0.0938
    --------------------------------------------
      LOOP:  cpu time    5.3502: real time    5.3614

 eigenvalue-minimisations  :    85
 total energy-change (2. order) :-0.2034463E-03  (-0.8475286E-06)
 number of electron      72.0000039 magnetization 
 augmentation part        3.1842949 magnetization 

 Broyden mixing:
  rms(total) = 0.18798E-03    rms(broyden)= 0.18792E-03
  rms(prec ) = 0.31363E-03
  weight for this iteration     100.00

 eigenvalues of (default mixing * dielectric matrix)
  average eigenvalue GAMMA=   2.3990
  8.2379  5.9337  3.3373  2.5474  2.1811  2.1811  1.7852  1.1966  1.1966  1.1122
  0.9998  0.9998  0.9565  0.9204

 Free energy of the ion-electron system (eV)
  ---------------------------------------------------
  alpha Z        PSCENC =         2.78055327
  Ewald energy   TEWEN  =      6512.17985003
  -Hartree energ DENC   =     -8952.14968997
  -exchange      EXHF   =         0.00000000
  -V(xc)+E(xc)   XCENC  =       261.80941266
  PAW double counting   =      5752.08545653    -5765.32408293
  entropy T*S    EENTRO =        -0.00000000
  eigenvalues    EBANDS =      -916.19999865
  atomic energy  EATOM  =      2943.23792529
  Solvation  Ediel_sol  =         0.00000000
  ---------------------------------------------------
  free energy    TOTEN  =      -161.58057378 eV

  energy without entropy =     -161.58057378  energy(sigma->0) =     -161.58057378


--------------------------------------------------------------------------------------------------------




--------------------------------------- Iteration      1(  22)  ---------------------------------------


    POTLOK:  cpu time    1.3088: real time    1.3123
    SETDIJ:  cpu time    0.0060: real time    0.0058
    EDDIAG:  cpu time    0.9129: real time    0.9153
  RMM-DIIS:  cpu time    2.4446: real time    2.4517
    ORTHCH:  cpu time    0.1650: real time    0.1657
       DOS:  cpu time    0.0010: real time    0.0003
    CHARGE:  cpu time    0.4149: real time    0.4163
    MIXING:  cpu time    0.0990: real time    0.0991
    --------------------------------------------
      LOOP:  cpu time    5.3512: real time    5.3665

 eigenvalue-minimisations  :    84
 total energy-change (2. order) :-0.2075661E-03  (-0.8880370E-06)
 number of electron      72.0000039 magnetization 
 augmentation part        3.1843230 magnetization 

 Broyden mixing:
  rms(total) = 0.19491E-03    rms(broyden)= 0.19483E-03
  rms(prec ) = 0.23356E-03
  weight for this iteration     100.00

 eigenvalues of (default mixing * dielectric matrix)
  average eigenvalue GAMMA=   2.3947
  8.4538  6.1347  3.8542  2.5826  2.2715  2.0124  1.7684  1.3828  1.3828  1.0598
  1.0598  1.1014  1.0117  0.9220  0.9220

 Free energy of the ion-electron system (eV)
  ---------------------------------------------------
  alpha Z        PSCENC =         2.78055327
  Ewald energy   TEWEN  =      6512.17985003
  -Hartree energ DENC   =     -8952.17595262
  -exchange      EXHF   =         0.00000000
  -V(xc)+E(xc)   XCENC  =       261.80890456
  PAW double counting   =      5752.06978642    -5765.30836453
  entropy T*S    EENTRO =        -0.00000000
  eigenvalues    EBANDS =      -916.17348376
  atomic energy  EATOM  =      2943.23792529
  Solvation  Ediel_sol  =         0.00000000
  ---------------------------------------------------
  free energy    TOTEN  =      -161.58078134 eV

  energy without entropy =     -161.58078134  energy(sigma->0) =     -161.58078134


--------------------------------------------------------------------------------------------------------




--------------------------------------- Iteration      1(  23)  ---------------------------------------


    POTLOK:  cpu time    1.3088: real time    1.3121
    SETDIJ:  cpu time    0.0070: real time    0.0071
    EDDIAG:  cpu time    0.9129: real time    0.9150
  RMM-DIIS:  cpu time    2.1477: real time    2.1523
    ORTHCH:  cpu time    0.1660: real time    0.1658
       DOS:  cpu time    0.0000: real time    0.0003
    CHARGE:  cpu time    0.4169: real time    0.4181
    MIXING:  cpu time    0.1050: real time    0.1049
    --------------------------------------------
      LOOP:  cpu time    5.0642: real time    5.0753

 eigenvalue-minimisations  :    73
 total energy-change (2. order) :-0.4375006E-04  (-0.2213430E-06)
 number of electron      72.0000039 magnetization 
 augmentation part        3.1842970 magnetization 

 Broyden mixing:
  rms(total) = 0.59317E-04    rms(broyden)= 0.59245E-04
  rms(prec ) = 0.89681E-04
  weight for this iteration     100.00

 eigenvalues of (default mixing * dielectric matrix)
  average eigenvalue GAMMA=   2.4323
  8.6878  6.5314  4.2211  2.7084  2.4650  1.9474  1.9474  1.9100  1.2617  1.2617
  1.0239  1.0239  1.1206  0.9089  0.9089  0.9895

 Free energy of the ion-electron system (eV)
  ---------------------------------------------------
  alpha Z        PSCENC =         2.78055327
  Ewald energy   TEWEN  =      6512.17985003
  -Hartree energ DENC   =     -8952.20333889
  -exchange      EXHF   =         0.00000000
  -V(xc)+E(xc)   XCENC  =       261.80955989
  PAW double counting   =      5752.09194976    -5765.33068524
  entropy T*S    EENTRO =        -0.00000000
  eigenvalues    EBANDS =      -916.14663919
  atomic energy  EATOM  =      2943.23792529
  Solvation  Ediel_sol  =         0.00000000
  ---------------------------------------------------
  free energy    TOTEN  =      -161.58082509 eV

  energy without entropy =     -161.58082509  energy(sigma->0) =     -161.58082509


--------------------------------------------------------------------------------------------------------




--------------------------------------- Iteration      1(  24)  ---------------------------------------


    POTLOK:  cpu time    1.3098: real time    1.3131
    SETDIJ:  cpu time    0.0080: real time    0.0070
    EDDIAG:  cpu time    0.9139: real time    0.9164
  RMM-DIIS:  cpu time    2.0787: real time    2.0849
    ORTHCH:  cpu time    0.1650: real time    0.1653
       DOS:  cpu time    0.0010: real time    0.0007
    CHARGE:  cpu time    0.4159: real time    0.4170
    MIXING:  cpu time    0.1130: real time    0.1129
    --------------------------------------------
      LOOP:  cpu time    5.0052: real time    5.0173

 eigenvalue-minimisations  :    63
 total energy-change (2. order) :-0.2434878E-04  (-0.7775809E-07)
 number of electron      72.0000039 magnetization 
 augmentation part        3.1842867 magnetization 

 Broyden mixing:
  rms(total) = 0.75801E-04    rms(broyden)= 0.75778E-04
  rms(prec ) = 0.88619E-04
  weight for this iteration     100.00

 eigenvalues of (default mixing * dielectric matrix)
  average eigenvalue GAMMA=   2.4321
  8.8878  6.6479  4.5992  2.8268  2.3633  2.3633  1.8658  1.8658  1.4080  1.4080
  1.0696  1.0696  1.1342  1.0165  0.9416  0.9393  0.9393

 Free energy of the ion-electron system (eV)
  ---------------------------------------------------
  alpha Z        PSCENC =         2.78055327
  Ewald energy   TEWEN  =      6512.17985003
  -Hartree energ DENC   =     -8952.20582106
  -exchange      EXHF   =         0.00000000
  -V(xc)+E(xc)   XCENC  =       261.80951113
  PAW double counting   =      5752.16335166    -5765.40206956
  entropy T*S    EENTRO =        -0.00000000
  eigenvalues    EBANDS =      -916.14415019
  atomic energy  EATOM  =      2943.23792529
  Solvation  Ediel_sol  =         0.00000000
  ---------------------------------------------------
  free energy    TOTEN  =      -161.58084944 eV

  energy without entropy =     -161.58084944  energy(sigma->0) =     -161.58084944


--------------------------------------------------------------------------------------------------------




--------------------------------------- Iteration      1(  25)  ---------------------------------------


    POTLOK:  cpu time    1.3068: real time    1.3102
    SETDIJ:  cpu time    0.0070: real time    0.0068
    EDDIAG:  cpu time    0.9159: real time    0.9174
  RMM-DIIS:  cpu time    1.9507: real time    1.9553
    ORTHCH:  cpu time    0.1660: real time    0.1661
       DOS:  cpu time    0.0000: real time    0.0002
    --------------------------------------------
      LOOP:  cpu time    4.3463: real time    4.3560

 eigenvalue-minimisations  :    52
 total energy-change (2. order) :-0.8784144E-05  (-0.1537273E-07)
 number of electron      72.0000039 magnetization 
 augmentation part        3.1842867 magnetization 

 Free energy of the ion-electron system (eV)
  ---------------------------------------------------
  alpha Z        PSCENC =         2.78055327
  Ewald energy   TEWEN  =      6512.17985003
  -Hartree energ DENC   =     -8952.20479280
  -exchange      EXHF   =         0.00000000
  -V(xc)+E(xc)   XCENC  =       261.80929320
  PAW double counting   =      5752.13680930    -5765.37545349
  entropy T*S    EENTRO =        -0.00000000
  eigenvalues    EBANDS =      -916.14504302
  atomic energy  EATOM  =      2943.23792529
  Solvation  Ediel_sol  =         0.00000000
  ---------------------------------------------------
  free energy    TOTEN  =      -161.58085823 eV

  energy without entropy =     -161.58085823  energy(sigma->0) =     -161.58085823


--------------------------------------------------------------------------------------------------------




 average (electrostatic) potential at core
  the test charge radii are     0.6991  0.5201  0.7215
  (the norm of the test charge is              1.0000)
       1 -60.0218       2 -58.5642       3 -58.5491       4 -58.4101       5 -58.4409
       6 -59.9403       7 -59.9473       8 -59.6068       9 -58.4284      10 -58.4004
      11 -42.0915      12 -41.8055      13 -41.8796      14 -44.7427      15 -42.2587
      16 -42.4131      17 -42.2784      18 -41.6369      19 -41.5852      20 -44.3404
      21 -41.8156      22 -41.7355      23 -41.7255      24 -41.6232      25 -81.0316
      26 -81.5069      27 -80.1832
 
 
 
 E-fermi :  -4.6959     XC(G=0):  -0.4326     alpha+bet : -0.2017


 k-point     1 :       0.0000    0.0000    0.0000
  band No.  band energies     occupation 
      1     -26.9644      2.00000
      2     -26.1321      2.00000
      3     -25.2575      2.00000
      4     -20.9842      2.00000
      5     -19.3824      2.00000
      6     -18.6039      2.00000
      7     -18.3143      2.00000
      8     -17.3465      2.00000
      9     -16.4478      2.00000
     10     -14.8842      2.00000
     11     -14.8004      2.00000
     12     -14.0322      2.00000
     13     -13.4923      2.00000
     14     -12.8661      2.00000
     15     -12.0982      2.00000
     16     -11.6957      2.00000
     17     -11.4830      2.00000
     18     -11.2176      2.00000
     19     -10.8907      2.00000
     20     -10.6464      2.00000
     21     -10.2527      2.00000
     22      -9.9472      2.00000
     23      -9.7960      2.00000
     24      -9.6155      2.00000
     25      -9.0723      2.00000
     26      -8.9022      2.00000
     27      -8.6166      2.00000
     28      -8.3458      2.00000
     29      -8.1962      2.00000
     30      -8.0894      2.00000
     31      -7.9446      2.00000
     32      -7.6101      2.00000
     33      -7.4736      2.00000
     34      -6.0932      2.00000
     35      -5.6723      2.00000
     36      -4.9047      2.00000
     37      -0.8734      0.00000
     38      -0.6917      0.00000
     39      -0.4838      0.00000
     40      -0.3802      0.00000
     41      -0.2449      0.00000
     42      -0.0123      0.00000
     43       0.0556      0.00000
     44       0.1792      0.00000
     45       0.2600      0.00000
     46       0.3473      0.00000
     47       0.4440      0.00000
     48       0.5304      0.00000
     49       0.5583      0.00000
     50       0.5703      0.00000
     51       0.6201      0.00000
     52       0.6639      0.00000
     53       0.6776      0.00000
     54       0.7028      0.00000
     55       0.7406      0.00000
     56       0.7733      0.00000
     57       0.8742      0.00000
     58       0.9614      0.00000
     59       1.1951      0.00000
     60       2.5906      0.00000


--------------------------------------------------------------------------------------------------------


 soft charge-density along one line, spin component           1
         0         1         2         3         4         5         6         7         8         9
 total charge-density along one line
 
 pseudopotential strength for first ion, spin component:           1
 10.326  13.734  -0.007   0.001  -0.002   0.021  -0.003   0.005
 13.734  18.267  -0.009   0.001  -0.002   0.027  -0.003   0.007
 -0.007  -0.009  -4.455   0.004  -0.003   8.718  -0.006   0.005
  0.001   0.001   0.004  -4.437  -0.003  -0.006   8.685   0.004
 -0.002  -0.002  -0.003  -0.003  -4.444   0.005   0.004   8.695
  0.021   0.027   8.718  -0.006   0.005 -19.203   0.011  -0.008
 -0.003  -0.003  -0.006   8.685   0.004   0.011 -19.143  -0.004
  0.005   0.007   0.005   0.004   8.695  -0.008  -0.004 -19.155
 total augmentation occupancy for first ion, spin component:           1
  8.116  -3.676   0.052  -0.013  -0.013  -0.024   0.001  -0.012
 -3.676   1.763   0.076  -0.006   0.034   0.026  -0.002   0.010
  0.052   0.076   1.545  -0.044   0.044   0.163  -0.016   0.012
 -0.013  -0.006  -0.044   1.357   0.198  -0.016   0.083   0.031
 -0.013   0.034   0.044   0.198   1.814   0.012   0.031   0.156
 -0.024   0.026   0.163  -0.016   0.012   0.020  -0.003   0.002
  0.001  -0.002  -0.016   0.083   0.031  -0.003   0.006   0.004
 -0.012   0.010   0.012   0.031   0.156   0.002   0.004   0.015


------------------------ aborting loop because EDIFF is reached ----------------------------------------


    CHARGE:  cpu time    0.4099: real time    0.4106
    FORLOC:  cpu time    0.2120: real time    0.2127
    FORNL :  cpu time    1.0158: real time    1.0173
    STRESS:  cpu time    3.0565: real time    3.0639
    FORCOR:  cpu time    1.3928: real time    1.3959
    FORHAR:  cpu time    0.5029: real time    0.5041
    MIXING:  cpu time    0.1180: real time    0.1185
    OFIELD:  cpu time    0.0000: real time    0.0000

  DFT-D2 method for vdW energy calculation
  -------------------------------------------------------------------

  Parameters of vdW forcefield:
         C6(Jnm^6/mol)     R0(A)
   -----------------------------
   C        1.750          1.452
   H        0.140          1.001
   O        0.700          1.342

  IVDW =   1
  VDW_RADIUS =    40.000 A
  VDW_S6 =     0.750
  VDW_SR =     1.000
  VDW_D =    20.000
  LVDW_EWALD = F

  Number of pair interactions contributing to vdW energy:   11381
  Edisp (eV):   -0.61751
    FORVDW:  cpu time    0.0210: real time    0.0213

  FORCE on cell =-STRESS in cart. coord.  units (eV):
  Direction    XX          YY          ZZ          XY          YZ          ZX
  --------------------------------------------------------------------------------------
  Alpha Z     2.78055     2.78055     2.78055
  Ewald    3707.47043  2843.10317   -38.39645  1046.09883  -533.77893   963.63429
  Hartree  4254.50115  3414.46047  1283.24343   876.71653  -345.86380   653.68679
  E(xc)    -282.05402  -281.81726  -285.14722     0.53175    -0.88737     1.41357
  Local   -8693.77622 -6967.74121 -2038.77898 -1909.18588   852.91070 -1577.27623
  n-local  -149.89160  -151.02863  -150.03057     0.81560    -0.44700     1.39914
  augment    17.71905    17.13715    19.32865    -0.86149     1.02884    -1.53119
  Kinetic  1142.24958  1122.03129  1205.72489   -13.97045    26.87652   -41.35433
  Fock        0.00000     0.00000     0.00000     0.00000     0.00000     0.00000
  vdW        -0.19767    -0.02591     0.04364    -0.08910     0.02285     0.11815
  -------------------------------------------------------------------------------------
  Total      -1.19876    -1.10037    -1.23205     0.05578    -0.13819     0.09017
  in kB      -0.24008    -0.22037    -0.24674     0.01117    -0.02768     0.01806
  external pressure =       -0.24 kB  Pullay stress =        0.00 kB


 VOLUME and BASIS-vectors are now :
 -----------------------------------------------------------------------------
  energy-cutoff  :      450.00
  volume of cell :     8000.00
      direct lattice vectors                 reciprocal lattice vectors
    20.000000000  0.000000000  0.000000000     0.050000000  0.000000000  0.000000000
     0.000000000 20.000000000  0.000000000     0.000000000  0.050000000  0.000000000
     0.000000000  0.000000000 20.000000000     0.000000000  0.000000000  0.050000000

  length of vectors
    20.000000000 20.000000000 20.000000000     0.050000000  0.050000000  0.050000000


 FORCES acting on ions
    electron-ion (+dipol)            ewald-force                    non-local-force                 convergence-correction
 -----------------------------------------------------------------------------------------------
   0.644E+01 0.321E+02 -.645E+01   -.469E+01 -.255E+02 0.563E+01   -.179E+01 -.663E+01 0.822E+00   -.759E-04 -.355E-04 -.115E-04
   -.102E+03 0.779E+02 -.633E+02   0.104E+03 -.773E+02 0.638E+02   -.187E+01 -.632E+00 -.523E+00   0.358E-04 0.910E-05 0.174E-04
   -.866E+01 -.743E+02 -.132E+00   0.886E+01 0.752E+02 0.543E+00   -.231E+00 -.886E+00 -.398E+00   -.135E-04 0.842E-04 0.383E-05
   0.670E+02 -.217E+03 0.651E+02   -.667E+02 0.218E+03 -.649E+02   -.349E+00 -.105E+01 -.227E+00   -.277E-04 0.111E-03 -.124E-04
   0.168E+03 -.159E+03 0.962E+02   -.168E+03 0.160E+03 -.968E+02   0.597E+00 -.169E+01 0.596E+00   -.791E-04 0.630E-04 -.781E-05
   0.101E+03 -.307E+02 0.445E+02   -.963E+02 0.348E+02 -.436E+02   -.485E+01 -.404E+01 -.950E+00   -.115E-03 0.309E-05 -.597E-05
   -.105E+03 0.219E+03 -.953E+02   0.110E+03 -.222E+03 0.982E+02   -.502E+01 0.370E+01 -.296E+01   -.714E-05 -.268E-04 -.396E-04
   -.340E+02 -.142E+03 0.270E+02   0.329E+02 0.144E+03 -.323E+02   0.103E+01 -.127E+01 0.529E+01   -.601E-04 -.425E-04 0.153E-03
   -.122E+03 0.245E+02 0.130E+03   0.121E+03 -.247E+02 -.130E+03   0.655E+00 0.261E+00 -.177E+00   0.845E-04 -.231E-04 0.219E-05
   -.191E+03 -.735E+02 0.356E+02   0.191E+03 0.734E+02 -.360E+02   0.290E+00 0.149E+00 0.441E+00   0.597E-05 -.776E-04 -.700E-05
   -.634E+02 0.465E+02 -.381E+02   0.679E+02 -.491E+02 0.406E+02   -.448E+01 0.266E+01 -.247E+01   0.131E-04 0.499E-05 0.188E-05
   0.130E+02 -.925E+02 0.224E+02   -.127E+02 0.981E+02 -.235E+02   -.393E+00 -.560E+01 0.100E+01   -.923E-05 0.158E-04 0.268E-06
   0.712E+02 -.547E+02 0.380E+02   -.757E+02 0.574E+02 -.403E+02   0.453E+01 -.275E+01 0.226E+01   -.106E-04 0.121E-04 0.582E-05
   0.455E+02 0.105E+03 -.762E+01   -.447E+02 -.113E+03 0.980E+01   -.788E+00 0.797E+01 -.218E+01   0.409E-05 0.353E-04 0.671E-05
   -.256E+02 0.165E+02 -.804E+02   0.269E+02 -.145E+02 0.855E+02   -.135E+01 -.206E+01 -.506E+01   -.162E-05 -.180E-05 -.474E-05
   0.115E+02 0.898E+02 -.181E+02   -.134E+02 -.952E+02 0.186E+02   0.196E+01 0.541E+01 -.582E+00   0.642E-05 -.276E-04 -.677E-05
   -.675E+02 0.433E+02 0.288E+02   0.721E+02 -.434E+02 -.321E+02   -.457E+01 0.169E-01 0.326E+01   0.770E-05 -.129E-04 -.102E-04
   0.339E+01 -.988E+02 0.966E+01   -.422E+01 0.104E+03 -.105E+02   0.816E+00 -.537E+01 0.838E+00   -.289E-04 0.189E-04 0.458E-06
   -.433E+02 0.711E+02 0.130E+02   0.439E+02 -.765E+02 -.123E+02   -.653E+00 0.538E+01 -.756E+00   0.672E-05 -.111E-04 0.425E-05
   -.957E+02 -.493E+02 -.599E+02   0.103E+03 0.527E+02 0.615E+02   -.733E+01 -.338E+01 -.160E+01   -.753E-04 -.427E-04 -.137E-04
   -.632E+02 -.159E+01 -.505E+02   0.654E+02 0.702E+00 0.553E+02   -.216E+01 0.909E+00 -.486E+01   -.161E-04 -.155E-04 -.400E-04
   -.691E+02 0.853E+01 0.461E+02   0.730E+02 -.101E+02 -.497E+02   -.382E+01 0.162E+01 0.360E+01   -.319E-04 -.106E-04 0.320E-04
   -.254E+02 -.775E+02 0.150E+02   0.248E+02 0.829E+02 -.156E+02   0.621E+00 -.538E+01 0.623E+00   -.737E-05 -.502E-04 0.442E-05
   -.527E+01 -.980E+01 0.885E+02   0.354E+01 0.104E+02 -.937E+02   0.174E+01 -.599E+00 0.519E+01   -.582E-05 -.450E-05 -.102E-04
[...]
  -------------------------------------------------------------------------------------
  Total      -1.15837    -1.12646    -1.19491     0.02647    -0.06890     0.04012
  in kB      -0.23199    -0.22560    -0.23931     0.00530    -0.01380     0.00803
  external pressure =       -0.23 kB  Pullay stress =        0.00 kB



--------------------------------------------------------------------------------------------------------



  FREE ENERGIE OF THE ION-ELECTRON SYSTEM (eV)
  ---------------------------------------------------
  free  energy   TOTEN  =      -162.19921158 eV

  energy  without entropy=     -162.19921158  energy(sigma->0) =     -162.19921158
 
 d Force = 0.7000514E-04[ 0.514E-04, 0.887E-04]  d Energy = 0.7382725E-04-0.382E-05
 d Force =-0.4572040E-01[-0.453E-01,-0.461E-01]  d Ewald  =-0.4572036E-01-0.384E-07


--------------------------------------------------------------------------------------------------------


    POTLOK:  cpu time    1.3078: real time    1.3121


--------------------------------------------------------------------------------------------------------


 Conjugate gradient step on ions:
 trial-energy change:   -0.000074  1 .order   -0.000070   -0.000089   -0.000051
  (g-gl).g = 0.136E-03      g.g   = 0.127E-03  gl.gl    = 0.112E-03
 g(Force)  = 0.127E-03   g(Stress)= 0.000E+00 ortho     =-0.315E-05
 gamma     =   1.21655
 trial     =   0.72162
 opt step  =   1.71486  (harmonic =   1.71486) maximal distance =0.00256204
 next E    =  -162.199243   (d E  =  -0.00011)


--------------------------------------------------------------------------------------------------------


    WAVPRE:  cpu time    0.5089: real time    0.5140
    FEWALD:  cpu time    0.0010: real time    0.0009
    ORTHCH:  cpu time    0.4989: real time    0.5007
     LOOP+:  cpu time   37.1733: real time   37.2946


--------------------------------------- Iteration     17(   1)  ---------------------------------------


    POTLOK:  cpu time    1.3158: real time    1.3204
    SETDIJ:  cpu time    0.0050: real time    0.0058
     EDDAV:  cpu time    5.1552: real time    5.1708
       DOS:  cpu time    0.0000: real time    0.0003
    CHARGE:  cpu time    0.4239: real time    0.4252
    MIXING:  cpu time    0.0360: real time    0.0360
    --------------------------------------------
      LOOP:  cpu time    6.9359: real time    6.9585

 eigenvalue-minimisations  :   144
 total energy-change (2. order) : 0.2918549E-04  (-0.3454518E-02)
 number of electron      72.0000028 magnetization 
 augmentation part        3.1840833 magnetization 

  free energy =  -0.161581518674E+03  energy without entropy=  -0.161581518674E+03


--------------------------------------------------------------------------------------------------------




--------------------------------------- Iteration     17(   2)  ---------------------------------------


    POTLOK:  cpu time    1.3238: real time    1.3277
    SETDIJ:  cpu time    0.0060: real time    0.0057
    EDDIAG:  cpu time    0.9159: real time    0.9186
  RMM-DIIS:  cpu time    3.1935: real time    3.2015
    ORTHCH:  cpu time    0.1650: real time    0.1658
       DOS:  cpu time    0.0000: real time    0.0002
    CHARGE:  cpu time    0.4179: real time    0.4190
    MIXING:  cpu time    0.0390: real time    0.0390
    --------------------------------------------
      LOOP:  cpu time    6.0611: real time    6.0776

 eigenvalue-minimisations  :   120
 total energy-change (2. order) :-0.5292573E-04  (-0.7591421E-04)
 number of electron      72.0000028 magnetization 
 augmentation part        3.1842757 magnetization 

 eigenvalues of (default mixing * dielectric matrix)
  average eigenvalue GAMMA=   1.0541
  1.0541

  free energy =  -0.161581571599E+03  energy without entropy=  -0.161581571599E+03


--------------------------------------------------------------------------------------------------------




--------------------------------------- Iteration     17(   3)  ---------------------------------------


    POTLOK:  cpu time    1.3238: real time    1.3290
    SETDIJ:  cpu time    0.0060: real time    0.0060
    EDDIAG:  cpu time    0.9129: real time    0.9148
  RMM-DIIS:  cpu time    2.4736: real time    2.4822
    ORTHCH:  cpu time    0.1650: real time    0.1657
       DOS:  cpu time    0.0000: real time    0.0002
    CHARGE:  cpu time    0.4189: real time    0.4205
    MIXING:  cpu time    0.0390: real time    0.0391
    --------------------------------------------
      LOOP:  cpu time    5.3392: real time    5.3575

 eigenvalue-minimisations  :    90
 total energy-change (2. order) :-0.2166949E-05  (-0.2208241E-05)
 number of electron      72.0000028 magnetization 
 augmentation part        3.1842235 magnetization 

 eigenvalues of (default mixing * dielectric matrix)
  average eigenvalue GAMMA=   1.6577
  1.0185  2.2968

  free energy =  -0.161581573766E+03  energy without entropy=  -0.161581573766E+03


--------------------------------------------------------------------------------------------------------




--------------------------------------- Iteration     17(   4)  ---------------------------------------


    POTLOK:  cpu time    1.3188: real time    1.3219
    SETDIJ:  cpu time    0.0060: real time    0.0062
    EDDIAG:  cpu time    0.9129: real time    0.9159
  RMM-DIIS:  cpu time    2.3926: real time    2.3989
    ORTHCH:  cpu time    0.1730: real time    0.1737
       DOS:  cpu time    0.0000: real time    0.0002
    CHARGE:  cpu time    0.4189: real time    0.4197
    MIXING:  cpu time    0.0410: real time    0.0415
    --------------------------------------------
      LOOP:  cpu time    5.2632: real time    5.2780

 eigenvalue-minimisations  :    86
 total energy-change (2. order) :-0.5981384E-05  (-0.1421355E-05)
 number of electron      72.0000028 magnetization 
 augmentation part        3.1841359 magnetization 

 eigenvalues of (default mixing * dielectric matrix)
  average eigenvalue GAMMA=   1.5600
  2.2080  1.2360  1.2360

  free energy =  -0.161581579748E+03  energy without entropy=  -0.161581579748E+03


--------------------------------------------------------------------------------------------------------




--------------------------------------- Iteration     17(   5)  ---------------------------------------


    POTLOK:  cpu time    1.3178: real time    1.3221
    SETDIJ:  cpu time    0.0060: real time    0.0059
    EDDIAG:  cpu time    0.9129: real time    0.9178
  RMM-DIIS:  cpu time    2.3007: real time    2.3075
    ORTHCH:  cpu time    0.1660: real time    0.1656
       DOS:  cpu time    0.0000: real time    0.0002
    --------------------------------------------
      LOOP:  cpu time    4.7033: real time    4.7190

 eigenvalue-minimisations  :    83
 total energy-change (2. order) :-0.3881296E-06  (-0.2080864E-06)
 number of electron      72.0000028 magnetization 
 augmentation part        3.1841359 magnetization 

  free energy =  -0.161581580136E+03  energy without entropy=  -0.161581580136E+03


--------------------------------------------------------------------------------------------------------




------------------------ aborting loop because EDIFF is reached ----------------------------------------


    CHARGE:  cpu time    0.4179: real time    0.4192
    FORLOC:  cpu time    0.2070: real time    0.2071
    FORNL :  cpu time    1.0098: real time    1.0131
    STRESS:  cpu time    3.0085: real time    3.0167
    FORCOR:  cpu time    1.3958: real time    1.3999
    FORHAR:  cpu time    0.4959: real time    0.4975
    MIXING:  cpu time    0.0410: real time    0.0408
    OFIELD:  cpu time    0.0000: real time    0.0000

  Number of pair interactions contributing to vdW energy:   11378
  Edisp (eV):   -0.61767
    FORVDW:  cpu time    0.0040: real time    0.0035

  FORCE on cell =-STRESS in cart. coord.  units (eV):
  Direction    XX          YY          ZZ          XY          YZ          ZX
  --------------------------------------------------------------------------------------
  Alpha Z     2.78055     2.78055     2.78055
  Ewald    3713.26809  2839.35721   -38.83324  1048.03582  -544.74639   961.28557
  Hartree  4260.47707  3410.15110  1283.30137   877.70992  -354.98069   651.88416
  E(xc)    -282.05962  -281.81368  -285.15360     0.53655    -0.89431     1.41230
  Local   -8705.90222 -6959.13520 -2038.60494 -1911.90581   873.04383 -1573.05274
  n-local  -149.88911  -151.01193  -150.05650     0.80517    -0.47800     1.40606
  augment    17.74525    17.08887    19.34432    -0.87241     1.02384    -1.54167
  Kinetic  1142.63091  1121.46517  1205.98261   -14.15886    26.95165   -41.47708
  Fock        0.00000     0.00000     0.00000     0.00000     0.00000     0.00000
  vdW        -0.20215    -0.02484     0.03683    -0.08864     0.02236     0.12183
  -------------------------------------------------------------------------------------
  Total      -1.15123    -1.14275    -1.20260     0.06174    -0.05771     0.03842
  in kB      -0.23056    -0.22886    -0.24085     0.01237    -0.01156     0.00769
  external pressure =       -0.23 kB  Pullay stress =        0.00 kB



--------------------------------------------------------------------------------------------------------



  FREE ENERGIE OF THE ION-ELECTRON SYSTEM (eV)
  ---------------------------------------------------
  free  energy   TOTEN  =      -162.19924831 eV

  energy  without entropy=     -162.19924831  energy(sigma->0) =     -162.19924831
 
 d Force = 0.3437355E-04[-0.193E-05, 0.707E-04]  d Energy = 0.3672831E-04-0.235E-05
 d Force =-0.6161134E-01[-0.608E-01,-0.624E-01]  d Ewald  =-0.6161137E-01 0.360E-07


--------------------------------------------------------------------------------------------------------


    POTLOK:  cpu time    1.3078: real time    1.3130


--------------------------------------------------------------------------------------------------------




--------------------------------------------------------------------------------------------------------


    WAVPRE:  cpu time    0.5069: real time    0.5121
    FEWALD:  cpu time    0.0010: real time    0.0009
    ORTHCH:  cpu time    0.4999: real time    0.5010
     LOOP+:  cpu time   37.2123: real time   37.3315


--------------------------------------- Iteration     18(   1)  ---------------------------------------


    POTLOK:  cpu time    1.3098: real time    1.3249
    SETDIJ:  cpu time    0.0060: real time    0.0060
     EDDAV:  cpu time    5.1042: real time    5.1617
       DOS:  cpu time    0.0000: real time    0.0003
    CHARGE:  cpu time    0.4269: real time    0.4279
    MIXING:  cpu time    0.0340: real time    0.0340
    --------------------------------------------
      LOOP:  cpu time    6.8810: real time    6.9547

 eigenvalue-minimisations  :   144
 total energy-change (2. order) :-0.2713370E-04  (-0.1214729E-02)
 number of electron      72.0000026 magnetization 
 augmentation part        3.1841695 magnetization 

  free energy =  -0.161581606881E+03  energy without entropy=  -0.161581606881E+03


--------------------------------------------------------------------------------------------------------




--------------------------------------- Iteration     18(   2)  ---------------------------------------


    POTLOK:  cpu time    1.3018: real time    1.3238
    SETDIJ:  cpu time    0.0060: real time    0.0058
    EDDIAG:  cpu time    0.9109: real time    0.9232
  RMM-DIIS:  cpu time    3.1865: real time    3.2261
    ORTHCH:  cpu time    0.1650: real time    0.1655
       DOS:  cpu time    0.0000: real time    0.0002
    CHARGE:  cpu time    0.4209: real time    0.4213
    MIXING:  cpu time    0.0360: real time    0.0368
    --------------------------------------------
      LOOP:  cpu time    6.0271: real time    6.1026

 eigenvalue-minimisations  :   120
 total energy-change (2. order) :-0.1993716E-04  (-0.2861323E-04)
 number of electron      72.0000026 magnetization 
 augmentation part        3.1842338 magnetization 

 eigenvalues of (default mixing * dielectric matrix)
  average eigenvalue GAMMA=   1.0647
  1.0647

  free energy =  -0.161581626819E+03  energy without entropy=  -0.161581626819E+03


--------------------------------------------------------------------------------------------------------




--------------------------------------- Iteration     18(   3)  ---------------------------------------


    POTLOK:  cpu time    1.2988: real time    1.3226
    SETDIJ:  cpu time    0.0060: real time    0.0059
    EDDIAG:  cpu time    0.9139: real time    0.9239
  RMM-DIIS:  cpu time    2.3526: real time    2.3795
    ORTHCH:  cpu time    0.1660: real time    0.1654
       DOS:  cpu time    0.0000: real time    0.0004
    CHARGE:  cpu time    0.4069: real time    0.4190
    MIXING:  cpu time    0.0380: real time    0.0387
    --------------------------------------------
      LOOP:  cpu time    5.1822: real time    5.2554

 eigenvalue-minimisations  :    85
 total energy-change (2. order) :-0.1192408E-05  (-0.8067693E-06)
 number of electron      72.0000026 magnetization 
 augmentation part        3.1842046 magnetization 

 eigenvalues of (default mixing * dielectric matrix)
  average eigenvalue GAMMA=   1.6585
  1.0404  2.2766

  free energy =  -0.161581628011E+03  energy without entropy=  -0.161581628011E+03


--------------------------------------------------------------------------------------------------------




--------------------------------------- Iteration     18(   4)  ---------------------------------------


    POTLOK:  cpu time    1.3138: real time    1.3270
    SETDIJ:  cpu time    0.0060: real time    0.0057
    EDDIAG:  cpu time    0.9049: real time    0.9162
  RMM-DIIS:  cpu time    2.2707: real time    2.2952
    ORTHCH:  cpu time    0.1640: real time    0.1653
       DOS:  cpu time    0.0010: real time    0.0002
    CHARGE:  cpu time    0.4179: real time    0.4271
    MIXING:  cpu time    0.0410: real time    0.0410
    --------------------------------------------
      LOOP:  cpu time    5.1192: real time    5.1776

 eigenvalue-minimisations  :    83
 total energy-change (2. order) :-0.2581147E-05  (-0.4911246E-06)
 number of electron      72.0000026 magnetization 
 augmentation part        3.1841713 magnetization 

 eigenvalues of (default mixing * dielectric matrix)
  average eigenvalue GAMMA=   1.5402
  2.2796  1.1705  1.1705

  free energy =  -0.161581630592E+03  energy without entropy=  -0.161581630592E+03


--------------------------------------------------------------------------------------------------------




--------------------------------------- Iteration     18(   5)  ---------------------------------------


    POTLOK:  cpu time    1.3068: real time    1.3231
    SETDIJ:  cpu time    0.0060: real time    0.0058
    EDDIAG:  cpu time    0.9059: real time    0.9193
  RMM-DIIS:  cpu time    2.2307: real time    2.2547
    ORTHCH:  cpu time    0.1650: real time    0.1661
       DOS:  cpu time    0.0010: real time    0.0002
    --------------------------------------------
      LOOP:  cpu time    4.6153: real time    4.6691

 eigenvalue-minimisations  :    77
 total energy-change (2. order) :-0.4467420E-06  (-0.7331981E-07)
 number of electron      72.0000026 magnetization 
 augmentation part        3.1841713 magnetization 

  free energy =  -0.161581631039E+03  energy without entropy=  -0.161581631039E+03


--------------------------------------------------------------------------------------------------------




------------------------ aborting loop because EDIFF is reached ----------------------------------------


    CHARGE:  cpu time    0.4109: real time    0.4228
    FORLOC:  cpu time    0.2060: real time    0.2067
    FORNL :  cpu time    1.0158: real time    1.0264
    STRESS:  cpu time    2.9705: real time    3.0045
    FORCOR:  cpu time    1.3828: real time    1.3937
    FORHAR:  cpu time    0.4889: real time    0.5015
    MIXING:  cpu time    0.0410: real time    0.0408
    OFIELD:  cpu time    0.0000: real time    0.0000

  Number of pair interactions contributing to vdW energy:   11378
  Edisp (eV):   -0.61768
    FORVDW:  cpu time    0.0040: real time    0.0035

  FORCE on cell =-STRESS in cart. coord.  units (eV):
  Direction    XX          YY          ZZ          XY          YZ          ZX
  --------------------------------------------------------------------------------------
  Alpha Z     2.78055     2.78055     2.78055
  Ewald    3713.38600  2839.21203   -38.78515  1048.13576  -545.27362   961.11517
  Hartree  4260.63800  3409.92567  1283.40238   877.76834  -355.39599   651.78940
  E(xc)    -282.05835  -281.81161  -285.15237     0.53678    -0.89459     1.41184
  Local   -8706.20610 -6958.72601 -2038.76732 -1912.06006   873.98227 -1572.80385
  n-local  -149.88831  -151.01159  -150.05458     0.80242    -0.47843     1.40332
  augment    17.74727    17.08761    19.34546    -0.87267     1.02374    -1.54094
  Kinetic  1142.63666  1121.42851  1205.98128   -14.16056    26.95055   -41.45589
  Fock        0.00000     0.00000     0.00000     0.00000     0.00000     0.00000
  vdW        -0.20209    -0.02462     0.03657    -0.08862     0.02240     0.12197
  -------------------------------------------------------------------------------------
  Total      -1.16636    -1.13946    -1.21317     0.06139    -0.06366     0.04102
  in kB      -0.23359    -0.22820    -0.24296     0.01230    -0.01275     0.00822
  external pressure =       -0.23 kB  Pullay stress =        0.00 kB



--------------------------------------------------------------------------------------------------------



  FREE ENERGIE OF THE ION-ELECTRON SYSTEM (eV)
  ---------------------------------------------------
  free  energy   TOTEN  =      -162.19930716 eV

  energy  without entropy=     -162.19930716  energy(sigma->0) =     -162.19930716
 
 d Force = 0.5612767E-04[ 0.416E-04, 0.707E-04]  d Energy = 0.5884941E-04-0.272E-05
 d Force =-0.2082804E-01[-0.206E-01,-0.210E-01]  d Ewald  =-0.2082802E-01-0.274E-07


--------------------------------------------------------------------------------------------------------


    POTLOK:  cpu time    1.3018: real time    1.3141


--------------------------------------------------------------------------------------------------------


 Conjugate gradient step on ions:
 trial-energy change:   -0.000059  1 .order   -0.000056   -0.000071   -0.000042
  (g-gl).g = 0.739E-04      g.g   = 0.780E-04  gl.gl    = 0.127E-03
 g(Force)  = 0.780E-04   g(Stress)= 0.000E+00 ortho     =-0.195E-05
 gamma     =   0.58292
 trial     =   0.92026
 opt step  =   2.23185  (harmonic =   2.23185) maximal distance =0.00225422
 next E    =  -162.199334   (d E  =  -0.00009)


--------------------------------------------------------------------------------------------------------


  
 reached required accuracy - stopping structural energy minimisation
     LOOP+:  cpu time   35.6566: real time   36.0997
    4ORBIT:  cpu time    0.0000: real time    0.0000

 total amount of memory used by VASP MPI-rank0   184584. kBytes
=======================================================================

   base      :      30000. kBytes
   nonlr-proj:       2376. kBytes
   fftplans  :      33533. kBytes
   grid      :     104696. kBytes
   one-center:         82. kBytes
   wavefun   :      13897. kBytes
 
  
  
 General timing and accounting informations for this job:
 ========================================================
  
                  Total CPU time used (sec):      791.505
                            User time (sec):      760.611
                          System time (sec):       30.893
                         Elapsed time (sec):      794.229
  
                   Maximum memory used (kb):      552556.
                   Average memory used (kb):           0.
  
                          Minor page faults:      1483688
                          Major page faults:            0
                 Voluntary context switches:         1777
