 vasp.5.4.4.18Apr17-6-g9f103f2a35 (build Jun 30 2017 19:19:18) complex          
  
 executed on         MareNostrum4 date 2022.04.19  22:26:07
 running on   48 total cores
 distrk:  each k-point on   48 cores,    1 groups
 distr:  one band on NCORES_PER_BAND=   1 cores,   48 groups


--------------------------------------------------------------------------------------------------------


 INCAR:
 POTCAR:    PAW_PBE Ni 02Aug2007                  
 POTCAR:    PAW_PBE C 08Apr2002                   
 POTCAR:    PAW_PBE H 15Jun2001                   
 POTCAR:    PAW_PBE O 08Apr2002                   

 ----------------------------------------------------------------------------- 
|                                                                             |
|           W    W    AA    RRRRR   N    N  II  N    N   GGGG   !!!           |
|           W    W   A  A   R    R  NN   N  II  NN   N  G    G  !!!           |
|           W    W  A    A  R    R  N N  N  II  N N  N  G       !!!           |
|           W WW W  AAAAAA  RRRRR   N  N N  II  N  N N  G  GGG   !            |
|           WW  WW  A    A  R   R   N   NN  II  N   NN  G    G                |
|           W    W  A    A  R    R  N    N  II  N    N   GGGG   !!!           |
|                                                                             |
|      For optimal performance we recommend to set                            |
|        NCORE= 4 - approx SQRT( number of cores)                             |
|      NCORE specifies how many cores store one orbital (NPAR=cpu/NCORE).     |
|      This setting can  greatly improve the performance of VASP for DFT.     |
|      The default,   NCORE=1            might be grossly inefficient         |
|      on modern multi-core architectures or massively parallel machines.     |
|      Do your own testing !!!!                                               |
|      Unfortunately you need to use the default for GW and RPA calculations. |
|      (for HF NCORE is supported but not extensively tested yet)             |
|                                                                             |
 ----------------------------------------------------------------------------- 

 POTCAR:    PAW_PBE Ni 02Aug2007                  
  local pseudopotential read in
  partial core-charges read in
  partial kinetic energy density read in
  atomic valenz-charges read in
  non local Contribution for L=           2  read in
    real space projection operators read in
  non local Contribution for L=           2  read in
    real space projection operators read in
  non local Contribution for L=           0  read in
    real space projection operators read in
  non local Contribution for L=           0  read in
    real space projection operators read in
  non local Contribution for L=           1  read in
    real space projection operators read in
  non local Contribution for L=           1  read in
    real space projection operators read in
    PAW grid and wavefunctions read in
 
   number of l-projection  operators is LMAX  =           6
   number of lm-projection operators is LMMAX =          18
 
 POTCAR:    PAW_PBE C 08Apr2002                   
  local pseudopotential read in
  partial core-charges read in
  partial kinetic energy density read in
  atomic valenz-charges read in
  non local Contribution for L=           0  read in
    real space projection operators read in
  non local Contribution for L=           0  read in
    real space projection operators read in
  non local Contribution for L=           1  read in
    real space projection operators read in
  non local Contribution for L=           1  read in
    real space projection operators read in
    PAW grid and wavefunctions read in
 
   number of l-projection  operators is LMAX  =           4
   number of lm-projection operators is LMMAX =           8
 
 POTCAR:    PAW_PBE H 15Jun2001                   
  local pseudopotential read in
  atomic valenz-charges read in
  non local Contribution for L=           0  read in
    real space projection operators read in
  non local Contribution for L=           0  read in
    real space projection operators read in
  non local Contribution for L=           1  read in
    real space projection operators read in
    PAW grid and wavefunctions read in
 
   number of l-projection  operators is LMAX  =           3
   number of lm-projection operators is LMMAX =           5
 
 POTCAR:    PAW_PBE O 08Apr2002                   
  local pseudopotential read in
  partial core-charges read in
  partial kinetic energy density read in
  kinetic energy density of atom read in
  atomic valenz-charges read in
  non local Contribution for L=           0  read in
    real space projection operators read in
  non local Contribution for L=           0  read in
    real space projection operators read in
  non local Contribution for L=           1  read in
    real space projection operators read in
  non local Contribution for L=           1  read in
    real space projection operators read in
    PAW grid and wavefunctions read in
 
   number of l-projection  operators is LMAX  =           4
   number of lm-projection operators is LMMAX =           8
 
 Optimization of the real space projectors (new method)

 maximal supplied QI-value         = 16.25
 optimisation between [QCUT,QGAM] = [ 10.73, 21.61] = [ 32.22,130.83] Ry 
 Optimized for a Real-space Cutoff    1.34 Angstroem

   l    n(q)    QCUT    max X(q) W(low)/X(q) W(high)/X(q)  e(spline) 
   2      8    10.726    60.317    0.47E-03    0.39E-03    0.97E-07
   2      8    10.726    55.921    0.48E-03    0.39E-03    0.10E-06
   0      9    10.726    51.690    0.35E-03    0.32E-03    0.97E-07
   0      9    10.726    30.015    0.31E-03    0.29E-03    0.88E-07
   1      8    10.726    18.849    0.34E-03    0.47E-04    0.17E-06
   1      8    10.726    14.624    0.29E-03    0.31E-04    0.15E-06
 Optimization of the real space projectors (new method)

 maximal supplied QI-value         = 25.13
 optimisation between [QCUT,QGAM] = [ 10.81, 21.61] = [ 32.71,130.83] Ry 
 Optimized for a Real-space Cutoff    1.23 Angstroem

   l    n(q)    QCUT    max X(q) W(low)/X(q) W(high)/X(q)  e(spline) 
   0      8    10.807   115.676    0.36E-03    0.72E-03    0.24E-06
   0      8    10.807    87.132    0.35E-03    0.71E-03    0.24E-06
   1      7    10.807     4.429    0.19E-03    0.39E-03    0.11E-06
   1      7    10.807     2.733    0.14E-03    0.28E-03    0.13E-06
 Optimization of the real space projectors (new method)

 maximal supplied QI-value         = 34.20
 optimisation between [QCUT,QGAM] = [ 10.60, 21.55] = [ 31.48,130.03] Ry 
 Optimized for a Real-space Cutoff    1.23 Angstroem

   l    n(q)    QCUT    max X(q) W(low)/X(q) W(high)/X(q)  e(spline) 
   0      8    10.603    19.460    0.37E-03    0.59E-03    0.23E-06
   0      8    10.603    12.209    0.35E-03    0.56E-03    0.22E-06
   1      7    10.603     4.655    0.70E-04    0.28E-03    0.29E-06
 Optimization of the real space projectors (new method)

 maximal supplied QI-value         = 24.76
 optimisation between [QCUT,QGAM] = [ 10.64, 21.54] = [ 31.73,129.89] Ry 
 Optimized for a Real-space Cutoff    1.23 Angstroem

   l    n(q)    QCUT    max X(q) W(low)/X(q) W(high)/X(q)  e(spline) 
   0      8    10.645    20.381    0.38E-03    0.60E-03    0.15E-06
   0      8    10.645    15.268    0.40E-03    0.65E-03    0.17E-06
   1      7    10.645     5.964    0.30E-03    0.63E-03    0.18E-06
   1      7    10.645     5.382    0.24E-03    0.53E-03    0.16E-06
  PAW_PBE Ni 02Aug2007                  :
 energy of atom  1       EATOM=-1077.6739
 kinetic energy error for atom=    0.0038 (will be added to EATOM!!)
  PAW_PBE C 08Apr2002                   :
 energy of atom  2       EATOM= -147.1560
 kinetic energy error for atom=    0.0116 (will be added to EATOM!!)
  PAW_PBE H 15Jun2001                   :
 energy of atom  3       EATOM=  -12.4884
 kinetic energy error for atom=    0.0045 (will be added to EATOM!!)
  PAW_PBE O 08Apr2002                   :
 energy of atom  4       EATOM= -432.3788
 kinetic energy error for atom=    0.0389 (will be added to EATOM!!)
 
 
 POSCAR: Ni  C  H  O                             
  positions in cartesian coordinates
  No initial velocities read in
 exchange correlation table for  LEXCH =        8
   RHO(1)=    0.500       N(1)  =     2000
   RHO(2)=  100.500       N(2)  =     4000
 


--------------------------------------------------------------------------------------------------------


 ion  position               nearest neighbor table
   1  0.000  0.250  0.190-  30 2.46  53 2.46  54 2.46   4 2.49   2 2.49  28 2.49   6 2.49  25 2.49
                             5 2.49
   2  0.000  0.500  0.190-  31 2.46  54 2.46  55 2.46   3 2.49   1 2.49  25 2.49   7 2.49  26 2.49
                             6 2.49
   3  0.000  0.750  0.190-  32 2.46  55 2.46  56 2.46   4 2.49   2 2.49  26 2.49   8 2.49  27 2.49
                             7 2.49
   4  0.000  1.000  0.190-  29 2.46  56 2.46  53 2.46   3 2.49   1 2.49  27 2.49   5 2.49  28 2.49
                             8 2.49
   5  0.143  0.250  0.190-  90 2.19  34 2.46  29 2.46  30 2.46   6 2.49   8 2.49  10 2.49   4 2.49
                             9 2.49   1 2.49
   6  0.143  0.500  0.190-  35 2.46  30 2.46  31 2.46   7 2.49   5 2.49  11 2.49   1 2.49  10 2.49
                             2 2.49
   7  0.143  0.750  0.190-  36 2.46  31 2.46  32 2.46   8 2.49   6 2.49  12 2.49   2 2.49  11 2.49
                             3 2.49
   8  0.143  1.000  0.190-  33 2.46  32 2.46  29 2.46   7 2.49   5 2.49   9 2.49   3 2.49  12 2.49
                             4 2.49
   9  0.286  0.250  0.190-  86 2.12  85 2.17  38 2.46  33 2.46  34 2.46  12 2.49  10 2.49   8 2.49
                            14 2.49   5 2.49  13 2.49
  10  0.286  0.500  0.190-  89 2.02  88 2.13  39 2.46  34 2.46  35 2.46  11 2.49   9 2.49   5 2.49
                            15 2.49   6 2.49  14 2.49
  11  0.286  0.750  0.190-  40 2.46  35 2.46  36 2.46  12 2.49  10 2.49   6 2.49  16 2.49   7 2.49
                            15 2.49
  12  0.286  1.000  0.190-  37 2.46  36 2.46  33 2.46  11 2.49   9 2.49   7 2.49  13 2.49   8 2.49
                            16 2.49
  13  0.429  0.250  0.190-  42 2.46  37 2.46  38 2.46  16 2.49  14 2.49  18 2.49  12 2.49   9 2.49
                            17 2.49
  14  0.429  0.500  0.190-  87 2.07  43 2.46  38 2.46  39 2.46  13 2.49  15 2.49   9 2.49  19 2.49
                            18 2.49  10 2.49  88 2.52
  15  0.429  0.750  0.190-  44 2.46  39 2.46  40 2.46  16 2.49  14 2.49  20 2.49  10 2.49  11 2.49
                            19 2.49
  16  0.429  1.000  0.190-  41 2.46  40 2.46  37 2.46  15 2.49  13 2.49  17 2.49  11 2.49  20 2.49
                            12 2.49
  17  0.571  0.250  0.190-  95 2.06  46 2.46  41 2.46  42 2.46  18 2.49  20 2.49  22 2.49  16 2.49
                            21 2.49  13 2.49  94 2.51
  18  0.571  0.500  0.190- 124 2.12  47 2.46  42 2.46  43 2.46  17 2.49  19 2.49  23 2.49  13 2.49
                            22 2.49  14 2.49
  19  0.571  0.750  0.190-  48 2.46  43 2.46  44 2.46  20 2.49  18 2.49  24 2.49  14 2.49  23 2.49
                            15 2.49
  20  0.571  1.000  0.190-  45 2.46  44 2.46  41 2.46  19 2.49  17 2.49  21 2.49  15 2.49  24 2.49
                            16 2.49
  21  0.714  0.250  0.190-  97 2.08  99 2.15  50 2.46  45 2.46  46 2.46  24 2.49  22 2.49  20 2.49
                            26 2.49  17 2.49  25 2.49
  22  0.714  0.500  0.190-  96 2.22  94 2.25  51 2.46  46 2.46  47 2.46  23 2.49  21 2.49  17 2.49
                            27 2.49  18 2.49  26 2.49
  23  0.714  0.750  0.190-  52 2.46  47 2.46  48 2.46  24 2.49  22 2.49  18 2.49  28 2.49  19 2.49
                            27 2.49
  24  0.714  1.000  0.190-  49 2.46  48 2.46  45 2.46  23 2.49  21 2.49  19 2.49  25 2.49  20 2.49
                            28 2.49
  25  0.857  0.250  0.190-  54 2.46  49 2.46  50 2.46  28 2.49  26 2.49   2 2.49  24 2.49   1 2.49
                            21 2.49
  26  0.857  0.500  0.190-  98 2.21  55 2.46  50 2.46  51 2.46  25 2.49  27 2.49   3 2.49  21 2.49
                             2 2.49  22 2.49
  27  0.857  0.750  0.190-  56 2.46  51 2.46  52 2.46  28 2.49  26 2.49   4 2.49  22 2.49   3 2.49
                            23 2.49
  28  0.857  1.000  0.190-  53 2.46  52 2.46  49 2.46  27 2.49  25 2.49   1 2.49  23 2.49   4 2.49
                            24 2.49
  29  0.095  0.083  0.095-   4 2.46   5 2.46   8 2.46  60 2.46  57 2.46  61 2.46  32 2.49  30 2.49
                            34 2.49  56 2.49  33 2.49  53 2.49
  30  0.095  0.333  0.095-   1 2.46   6 2.46   5 2.46  57 2.46  58 2.46  62 2.46  31 2.49  29 2.49
                            35 2.49  53 2.49  34 2.49  54 2.49
  31  0.095  0.583  0.095-   2 2.46   7 2.46   6 2.46  58 2.46  59 2.46  63 2.46  32 2.49  30 2.49
                            36 2.49  54 2.49  35 2.49  55 2.49
  32  0.095  0.833  0.095-   3 2.46   8 2.46   7 2.46  59 2.46  60 2.46  64 2.46  31 2.49  29 2.49
                            33 2.49  55 2.49  36 2.49  56 2.49
  33  0.238  0.083  0.095-   8 2.46   9 2.46  12 2.46  64 2.46  61 2.46  65 2.46  36 2.49  34 2.49
                            32 2.49  38 2.49  29 2.49  37 2.49
  34  0.238  0.333  0.095-   5 2.46  10 2.46   9 2.46  61 2.46  62 2.46  66 2.46  35 2.49  33 2.49
                            29 2.49  39 2.49  30 2.49  38 2.49
  35  0.238  0.583  0.095-   6 2.46  11 2.46  10 2.46  62 2.46  63 2.46  67 2.46  36 2.49  34 2.49
                            30 2.49  40 2.49  31 2.49  39 2.49
  36  0.238  0.833  0.095-   7 2.46  12 2.46  11 2.46  63 2.46  64 2.46  68 2.46  35 2.49  33 2.49
                            31 2.49  37 2.49  32 2.49  40 2.49
  37  0.381  0.083  0.095-  12 2.46  13 2.46  16 2.46  68 2.46  65 2.46  69 2.46  40 2.49  38 2.49
                            42 2.49  36 2.49  33 2.49  41 2.49
  38  0.381  0.333  0.095-   9 2.46  14 2.46  13 2.46  65 2.46  66 2.46  70 2.46  39 2.49  37 2.49
                            43 2.49  33 2.49  34 2.49  42 2.49
  39  0.381  0.583  0.095-  10 2.46  15 2.46  14 2.46  66 2.46  67 2.46  71 2.46  40 2.49  38 2.49
                            44 2.49  34 2.49  35 2.49  43 2.49
  40  0.381  0.833  0.095-  11 2.46  16 2.46  15 2.46  67 2.46  68 2.46  72 2.46  39 2.49  37 2.49
                            41 2.49  35 2.49  44 2.49  36 2.49
  41  0.524  0.083  0.095-  16 2.46  17 2.46  20 2.46  72 2.46  69 2.46  73 2.46  44 2.49  42 2.49
                            46 2.49  40 2.49  45 2.49  37 2.49
  42  0.524  0.333  0.095-  13 2.46  18 2.46  17 2.46  69 2.46  70 2.46  74 2.46  43 2.49  41 2.49
                            47 2.49  37 2.49  46 2.49  38 2.49
  43  0.524  0.583  0.095-  14 2.46  19 2.46  18 2.46  70 2.46  71 2.46  75 2.46  44 2.49  42 2.49
                            48 2.49  38 2.49  47 2.49  39 2.49
  44  0.524  0.833  0.095-  15 2.46  20 2.46  19 2.46  71 2.46  72 2.46  76 2.46  43 2.49  41 2.49
                            45 2.49  39 2.49  48 2.49  40 2.49
  45  0.667  0.083  0.095-  20 2.46  21 2.46  24 2.46  76 2.46  73 2.46  77 2.46  48 2.49  46 2.49
                            44 2.49  50 2.49  41 2.49  49 2.49
  46  0.667  0.333  0.095-  17 2.46  22 2.46  21 2.46  73 2.46  74 2.46  78 2.46  47 2.49  45 2.49
                            41 2.49  51 2.49  42 2.49  50 2.49
  47  0.667  0.583  0.095-  18 2.46  23 2.46  22 2.46  74 2.46  75 2.46  79 2.46  48 2.49  46 2.49
                            42 2.49  52 2.49  43 2.49  51 2.49
  48  0.667  0.833  0.095-  19 2.46  24 2.46  23 2.46  75 2.46  76 2.46  80 2.46  47 2.49  45 2.49
                            43 2.49  49 2.49  44 2.49  52 2.49
  49  0.810  0.083  0.095-  24 2.46  25 2.46  28 2.46  80 2.46  77 2.46  81 2.46  52 2.49  50 2.49
                            54 2.49  48 2.49  53 2.49  45 2.49
  50  0.810  0.333  0.095-  21 2.46  26 2.46  25 2.46  77 2.46  78 2.46  82 2.46  51 2.49  49 2.49
                            55 2.49  45 2.49  54 2.49  46 2.49
  51  0.810  0.583  0.095-  22 2.46  27 2.46  26 2.46  78 2.46  79 2.46  83 2.46  52 2.49  50 2.49
                            56 2.49  46 2.49  55 2.49  47 2.49
  52  0.810  0.833  0.095-  23 2.46  28 2.46  27 2.46  79 2.46  80 2.46  84 2.46  51 2.49  49 2.49
                            53 2.49  47 2.49  56 2.49  48 2.49
  53  0.952  0.083  0.095-  28 2.46   1 2.46   4 2.46  84 2.46  81 2.46  57 2.46  56 2.49  54 2.49
                            52 2.49  30 2.49  49 2.49  29 2.49
  54  0.952  0.333  0.095-  25 2.46   2 2.46   1 2.46  81 2.46  82 2.46  58 2.46  55 2.49  53 2.49
                            49 2.49  31 2.49  50 2.49  30 2.49
  55  0.952  0.583  0.095-  26 2.46   3 2.46   2 2.46  82 2.46  83 2.46  59 2.46  56 2.49  54 2.49
                            50 2.49  32 2.49  51 2.49  31 2.49
  56  0.952  0.833  0.095-  27 2.46   4 2.46   3 2.46  83 2.46  84 2.46  60 2.46  55 2.49  53 2.49
                            51 2.49  29 2.49  52 2.49  32 2.49
  57  0.048  0.167  0.000-  30 2.46  29 2.46  53 2.46  58 2.49  60 2.49  62 2.49  84 2.49  81 2.49
                            61 2.49
  58  0.048  0.417  0.000-  31 2.46  30 2.46  54 2.46  57 2.49  59 2.49  63 2.49  81 2.49  62 2.49
                            82 2.49
  59  0.048  0.667  0.000-  32 2.46  31 2.46  55 2.46  58 2.49  60 2.49  64 2.49  82 2.49  63 2.49
                            83 2.49
  60  0.048  0.917  0.000-  29 2.46  32 2.46  56 2.46  57 2.49  59 2.49  61 2.49  83 2.49  64 2.49
                            84 2.49
  61  0.190  0.167  0.000-  34 2.46  33 2.46  29 2.46  62 2.49  64 2.49  66 2.49  60 2.49  65 2.49
                            57 2.49
  62  0.190  0.417  0.000-  35 2.46  34 2.46  30 2.46  61 2.49  63 2.49  67 2.49  57 2.49  66 2.49
                            58 2.49
  63  0.190  0.667  0.000-  36 2.46  35 2.46  31 2.46  62 2.49  64 2.49  68 2.49  58 2.49  67 2.49
                            59 2.49
  64  0.190  0.917  0.000-  33 2.46  36 2.46  32 2.46  61 2.49  63 2.49  65 2.49  59 2.49  68 2.49
                            60 2.49
  65  0.333  0.167  0.000-  38 2.46  37 2.46  33 2.46  66 2.49  68 2.49  64 2.49  70 2.49  61 2.49
                            69 2.49
  66  0.333  0.417  0.000-  39 2.46  38 2.46  34 2.46  65 2.49  67 2.49  61 2.49  71 2.49  62 2.49
                            70 2.49
  67  0.333  0.667  0.000-  40 2.46  39 2.46  35 2.46  66 2.49  68 2.49  62 2.49  72 2.49  63 2.49
                            71 2.49
  68  0.333  0.917  0.000-  37 2.46  40 2.46  36 2.46  65 2.49  67 2.49  63 2.49  69 2.49  64 2.49
                            72 2.49
  69  0.476  0.167  0.000-  42 2.46  41 2.46  37 2.46  70 2.49  72 2.49  74 2.49  68 2.49  73 2.49
                            65 2.49
  70  0.476  0.417  0.000-  43 2.46  42 2.46  38 2.46  69 2.49  71 2.49  75 2.49  65 2.49  74 2.49
                            66 2.49
  71  0.476  0.667  0.000-  44 2.46  43 2.46  39 2.46  70 2.49  72 2.49  76 2.49  66 2.49  75 2.49
                            67 2.49
  72  0.476  0.917  0.000-  41 2.46  44 2.46  40 2.46  69 2.49  71 2.49  73 2.49  67 2.49  76 2.49
                            68 2.49
  73  0.619  0.167  0.000-  46 2.46  45 2.46  41 2.46  74 2.49  76 2.49  72 2.49  78 2.49  69 2.49
                            77 2.49
  74  0.619  0.417  0.000-  47 2.46  46 2.46  42 2.46  73 2.49  75 2.49  69 2.49  79 2.49  70 2.49
                            78 2.49
  75  0.619  0.667  0.000-  48 2.46  47 2.46  43 2.46  74 2.49  76 2.49  70 2.49  80 2.49  71 2.49
                            79 2.49
  76  0.619  0.917  0.000-  45 2.46  48 2.46  44 2.46  73 2.49  75 2.49  71 2.49  77 2.49  72 2.49
                            80 2.49
  77  0.762  0.167  0.000-  50 2.46  49 2.46  45 2.46  78 2.49  80 2.49  82 2.49  76 2.49  81 2.49
                            73 2.49
  78  0.762  0.417  0.000-  51 2.46  50 2.46  46 2.46  77 2.49  79 2.49  83 2.49  73 2.49  82 2.49
                            74 2.49
  79  0.762  0.667  0.000-  52 2.46  51 2.46  47 2.46  78 2.49  80 2.49  84 2.49  74 2.49  83 2.49
                            75 2.49
  80  0.762  0.917  0.000-  49 2.46  52 2.46  48 2.46  77 2.49  79 2.49  81 2.49  75 2.49  84 2.49
                            76 2.49
  81  0.905  0.167  0.000-  54 2.46  53 2.46  49 2.46  82 2.49  84 2.49  80 2.49  58 2.49  77 2.49
                            57 2.49
  82  0.905  0.417  0.000-  55 2.46  54 2.46  50 2.46  81 2.49  83 2.49  77 2.49  59 2.49  78 2.49
                            58 2.49
  83  0.905  0.667  0.000-  56 2.46  55 2.46  51 2.46  82 2.49  84 2.49  78 2.49  60 2.49  79 2.49
                            59 2.49
  84  0.905  0.917  0.000-  53 2.46  56 2.46  52 2.46  81 2.49  83 2.49  79 2.49  57 2.49  80 2.49
                            60 2.49
  85  0.241  0.220  0.287- 123 1.38  86 1.43  90 1.46   9 2.17
  86  0.335  0.290  0.284- 102 1.09  85 1.43  87 1.47   9 2.12
  87  0.395  0.458  0.284-  88 1.47  86 1.47  92 1.53  14 2.07
  88  0.350  0.549  0.280- 103 1.10  89 1.44  87 1.47  10 2.13  14 2.52
  89  0.255  0.479  0.283- 104 1.09  88 1.44  90 1.45  10 2.02
  90  0.197  0.313  0.286- 122 1.39  89 1.45  85 1.46   5 2.19
  91  0.226  0.988  0.335- 107 1.10 106 1.10 108 1.11 123 1.44
  92  0.475  0.533  0.329- 109 1.11 125 1.47  87 1.53  93 1.55
  93  0.533  0.458  0.344- 110 1.11 124 1.45 100 1.54  92 1.55
  94  0.646  0.420  0.284- 124 1.41  96 1.43  95 1.45  22 2.25  17 2.51
  95  0.612  0.255  0.282- 112 1.09  94 1.45  97 1.45  17 2.06
  96  0.738  0.528  0.293- 127 1.37  94 1.43  98 1.45  22 2.22
  97  0.676  0.203  0.284- 113 1.09  99 1.43  95 1.45  21 2.08
  98  0.802  0.477  0.286- 114 1.09  99 1.45  96 1.45  26 2.21
  99  0.769  0.311  0.283- 115 1.09  97 1.43  98 1.45  21 2.15
 100  0.484  0.291  0.370- 117 1.10 116 1.11 126 1.42  93 1.54
 101  0.847  0.772  0.337- 120 1.10 121 1.10 119 1.11 127 1.44
 102  0.361  0.216  0.298-  86 1.09
 103  0.389  0.671  0.294-  88 1.10
 104  0.227  0.549  0.299-  89 1.09
 105  0.080  0.155  0.310- 122 0.98
 106  0.272  0.055  0.374-  91 1.10
 107  0.171  0.879  0.353-  91 1.10
 108  0.261  0.961  0.297-  91 1.11
 109  0.521  0.650  0.310-  92 1.11
 110  0.580  0.534  0.381-  93 1.11
 111  0.490  0.617  0.417- 125 0.98
 112  0.546  0.175  0.300-  95 1.09
 113  0.653  0.083  0.298-  97 1.09
 114  0.869  0.550  0.305-  98 1.09
 115  0.815  0.271  0.296-  99 1.09
 116  0.452  0.210  0.330- 100 1.11
 117  0.533  0.265  0.390- 100 1.10
 118  0.409  0.352  0.416- 126 0.99
 119  0.890  0.805  0.294- 101 1.11
 120  0.848  0.874  0.356- 101 1.10
 121  0.872  0.720  0.373- 101 1.10
 122  0.121  0.264  0.321- 105 0.98  90 1.39
 123  0.186  0.072  0.309-  85 1.38  91 1.44
 124  0.586  0.476  0.288-  94 1.41  93 1.45  18 2.12
 125  0.440  0.547  0.390- 111 0.98  92 1.47
 126  0.421  0.266  0.418- 118 0.99 100 1.42
 127  0.757  0.665  0.321-  96 1.37 101 1.44
 
  Warning from LATTYP: Monoclinic adjustement (A1->A3, A2->A1, A3->A2)!
  Warning from LATTYP: Got some problem with cell dimensions!
  Tried to take original basis but could not verify dimensions!
  LATTYP: Found a simple monoclinic cell.
 ALAT       =    18.7839874413
 B/A-ratio  =     1.1229936872
 C/A-ratio  =     1.7371079010
 COS(beta)  =    -0.9695485959
  
  Lattice vectors:
  
 A1 = (  -7.4639997487, -17.2373690552,   0.0000000000)
 A2 = (   0.0000000000,   0.0000000000, -21.0942993164)
 A3 = (  19.9039993294,  25.8560535828,   0.0000000000)


Analysis of symmetry for initial positions (statically):
=====================================================================
 Subroutine PRICEL returns:
 Original cell was already a primitive cell.
 

 Routine SETGRP: Setting up the symmetry group for a 
 simple monoclinic supercell.


 Subroutine GETGRP returns: Found  1 space group operations
 (whereof  1 operations were pure point group operations)
 out of a pool of  4 trial point group operations.


The static configuration has the point symmetry C_1 .


Analysis of symmetry for dynamics (positions and initial velocities):
=====================================================================
 Subroutine PRICEL returns:
 Original cell was already a primitive cell.
 

 Routine SETGRP: Setting up the symmetry group for a 
 simple monoclinic supercell.


 Subroutine GETGRP returns: Found  1 space group operations
 (whereof  1 operations were pure point group operations)
 out of a pool of  4 trial point group operations.


The dynamic configuration has the point symmetry C_1 .


Analysis of constrained symmetry for selective dynamics:
=====================================================================
 Subroutine PRICEL returns:
 Original cell was already a primitive cell.
 

 Routine SETGRP: Setting up the symmetry group for a 
 simple monoclinic supercell.


 Subroutine GETGRP returns: Found  1 space group operations
 (whereof  1 operations were pure point group operations)
 out of a pool of  4 trial point group operations.


The constrained configuration has the point symmetry C_1 .


Analysis of structural, dynamic, and magnetic symmetry:
=====================================================================
 Subroutine PRICEL returns:
 Original cell was already a primitive cell.
 

 Routine SETGRP: Setting up the symmetry group for a 
 simple monoclinic supercell.


 Subroutine GETGRP returns: Found  1 space group operations
 (whereof  1 operations were pure point group operations)
 out of a pool of  4 trial point group operations.


The magnetic configuration has the point symmetry C_1 .


 Subroutine INISYM returns: Found  1 space group operations
 (whereof  1 operations are pure point group operations),
 and found     1 'primitive' translations

 
 
 KPOINTS: K-POINTS                                

Automatic generation of k-mesh.
Space group operators:
 irot       det(A)        alpha          n_x          n_y          n_z        tau_x        tau_y        tau_z
    1     1.000000     0.000001     1.000000     0.000000     0.000000     0.000000     0.000000     0.000000
 
 Subroutine IBZKPT returns following result:
 ===========================================
 
 Found      5 irreducible k-points:
 
 Following reciprocal coordinates:
            Coordinates               Weight
  0.000000  0.000000  0.000000      1.000000
  0.333333 -0.000000  0.000000      2.000000
  0.000000  0.333333  0.000000      2.000000
  0.333333  0.333333  0.000000      2.000000
 -0.333333  0.333333  0.000000      2.000000
 
 Following cartesian coordinates:
            Coordinates               Weight
  0.000000  0.000000  0.000000      1.000000
  0.019139  0.011050  0.000000      2.000000
  0.000000  0.038676  0.000000      2.000000
  0.019139  0.049726  0.000000      2.000000
 -0.019139  0.027625  0.000000      2.000000
 


--------------------------------------------------------------------------------------------------------




 Dimension of arrays:
   k-points           NKPTS =      5   k-points in BZ     NKDIM =      5   number of bands    NBANDS=    672
   number of dos      NEDOS =    301   number of ions     NIONS =    127
   non local maximal  LDIM  =      6   non local SUM 2l+1 LMDIM =     18
   total plane-waves  NPLWV = 544320
   max r-space proj   IRMAX =   1785   max aug-charges    IRDMAX=   5771
   dimension x,y,z NGX =    90 NGY =   54 NGZ =  112
   dimension x,y,z NGXF=   180 NGYF=  108 NGZF=  224
   support grid    NGXF=   180 NGYF=  108 NGZF=  224
   ions per type =              84  17  20   6
   NGX,Y,Z   is equivalent  to a cutoff of   8.59,  9.02,  8.83 a.u.
   NGXF,Y,Z  is equivalent  to a cutoff of  17.18, 18.04, 17.65 a.u.

 SYSTEM =  x                                       
 POSCAR =  Ni  C  H  O                             

 Startparameter for this run:
   NWRITE =      0    write-flag & timer
   PREC   = normal    normal or accurate (medium, high low for compatibility)
   ISTART =      0    job   : 0-new  1-cont  2-samecut
   ICHARG =      2    charge: 1-file 2-atom 10-const
   ISPIN  =      2    spin polarized calculation?
   LNONCOLLINEAR =      F non collinear calculations
   LSORBIT =      F    spin-orbit coupling
   INIWAV =      1    electr: 0-lowe 1-rand  2-diag
   LASPH  =      F    aspherical Exc in radial PAW
   METAGGA=      F    non-selfconsistent MetaGGA calc.

 Electronic Relaxation 1
   ENCUT  =  450.0 eV  33.07 Ry    5.75 a.u.  30.12 17.21 36.49*2*pi/ulx,y,z
   ENINI  =  450.0     initial cutoff
   ENAUG  =  644.9 eV  augmentation charge cutoff
   NELM   =     50;   NELMIN=  5; NELMDL= -7     # of ELM steps 
   EDIFF  = 0.1E-04   stopping-criterion for ELM
   LREAL  =      T    real-space projection
   NLSPLINE    = F    spline interpolate recip. space projectors
   LCOMPAT=      F    compatible to vasp.4.4
   GGA_COMPAT  = T    GGA compatible to vasp.4.4-vasp.4.6
   LMAXPAW     = -100 max onsite density
   LMAXMIX     =    2 max onsite mixed and CHGCAR
   VOSKOWN=      0    Vosko Wilk Nusair interpolation
   ROPT   =   -0.00050  -0.00050  -0.00050  -0.00050
 Ionic relaxation
   EDIFFG = -.2E-01   stopping-criterion for IOM
   NSW    =    300    number of steps for IOM
   NBLOCK =      1;   KBLOCK =    300    inner block; outer block 
   IBRION =      2    ionic relax: 0-MD 1-quasi-New 2-CG
   NFREE  =      2    steps in history (QN), initial steepest desc. (CG)
   ISIF   =      2    stress and relaxation
   IWAVPR =     11    prediction:  0-non 1-charg 2-wave 3-comb
   ISYM   =      2    0-nonsym 1-usesym 2-fastsym
   LCORR  =      T    Harris-Foulkes like correction to forces

   POTIM  = 0.1500    time-step for ionic-motion
   TEIN   =    0.0    initial temperature
   TEBEG  =    0.0;   TEEND  =   0.0 temperature during run
   SMASS  =  -3.00    Nose mass-parameter (am)
   estimated Nose-frequenzy (Omega)   =  0.10E-29 period in steps =****** mass=  -0.693E-26a.u.
   SCALEE = 1.0000    scale energy and forces
   NPACO  =    256;   APACO  = 16.0  distance and # of slots for P.C.
   PSTRESS=    0.0 pullay stress

  Mass of Ions in am
   POMASS =  58.69 12.01  1.00 16.00
  Ionic Valenz
   ZVAL   =  10.00  4.00  1.00  6.00
  Atomic Wigner-Seitz radii
   RWIGS  =  -1.00 -1.00 -1.00 -1.00
  virtual crystal weights 
   VCA    =   1.00  1.00  1.00  1.00
   NELECT =     964.0000    total number of electrons
   NUPDOWN=      -1.0000    fix difference up-down

 DOS related values:
   EMIN   =  10.00;   EMAX   =-10.00  energy-range for DOS
   EFERMI =   0.00
   ISMEAR =     0;   SIGMA  =   0.03  broadening in eV -4-tet -1-fermi 0-gaus

 Electronic relaxation 2 (details)
   IALGO  =     68    algorithm
   LDIAG  =      T    sub-space diagonalisation (order eigenvalues)
   LSUBROT=      F    optimize rotation matrix (better conditioning)
   TURBO    =      0    0=normal 1=particle mesh
   IRESTART =      0    0=no restart 2=restart with 2 vectors
   NREBOOT  =      0    no. of reboots
   NMIN     =      0    reboot dimension
   EREF     =   0.00    reference energy to select bands
   IMIX   =      4    mixing-type and parameters
     AMIX     =   0.40;   BMIX     =  1.00
     AMIX_MAG =   1.60;   BMIX_MAG =  1.00
     AMIN     =   0.10
     WC   =   100.;   INIMIX=   1;  MIXPRE=   1;  MAXMIX= -45

 Intra band minimization:
   WEIMIN = 0.0010     energy-eigenvalue tresh-hold
   EBREAK =  0.37E-08  absolut break condition
   DEPER  =   0.30     relativ break condition  

   TIME   =   0.40     timestep for ELM

  volume/ion in A,a.u.               =      24.93       168.25
  Fermi-wavevector in a.u.,A,eV,Ry     =   1.101325  2.081203 16.502748  1.212918
  Thomas-Fermi vector in A             =   2.237751
 
 Write flags
   LWAVE        =      F    write WAVECAR
   LDOWNSAMPLE  =      F    k-point downsampling of WAVECAR
   LCHARG       =      F    write CHGCAR
   LVTOT        =      F    write LOCPOT, total local potential
   LVHAR        =      F    write LOCPOT, Hartree potential only
   LELF         =      F    write electronic localiz. function (ELF)
   LORBIT       =      0    0 simple, 1 ext, 2 COOP (PROOUT), +10 PAW based schemes


 Dipole corrections
   LMONO  =      F    monopole corrections only (constant potential shift)
   LDIPOL =      T    correct potential (dipole corrections)
   IDIPOL =      3    1-x, 2-y, 3-z, 4-all directions 
   EPSILON=  1.0000000 bulk dielectric constant

 Exchange correlation treatment:
   GGA     =    PE    GGA type
   LEXCH   =     8    internal setting for exchange type
   VOSKOWN=      0    Vosko Wilk Nusair interpolation
   LHFCALC =     F    Hartree Fock is set to
   LHFONE  =     F    Hartree Fock one center treatment
   AEXX    =    0.0000 exact exchange contribution

 Linear response parameters
   LEPSILON=     F    determine dielectric tensor
   LRPA    =     F    only Hartree local field effects (RPA)
   LNABLA  =     F    use nabla operator in PAW spheres
   LVEL    =     F    velocity operator in full k-point grid
   LINTERFAST=   F  fast interpolation
   KINTER  =     0    interpolate to denser k-point grid
   CSHIFT  =0.1000    complex shift for real part using Kramers Kronig
   OMEGAMAX=  -1.0    maximum frequency
   DEG_THRESHOLD= 0.2000000E-02 threshold for treating states as degnerate
   RTIME   =   -0.100 relaxation time in fs
  (WPLASMAI=    0.000 imaginary part of plasma frequency in eV, 0.658/RTIME)
   DFIELD  = 0.0000000 0.0000000 0.0000000 field for delta impulse in time
 
 Orbital magnetization related:
   ORBITALMAG=     F  switch on orbital magnetization
   LCHIMAG   =     F  perturbation theory with respect to B field
   DQ        =  0.001000  dq finite difference perturbation B field
   LLRAUG    =     F  two centre corrections for induced B field



--------------------------------------------------------------------------------------------------------


 conjugate gradient relaxation of ions
   using selective dynamics as specified on POSCAR
   WARNING: If single coordinates had been selected the selection of coordinates
            is made according to the corresponding   d i r e c t   coordinates!
            Don't support selection of single cartesian coordinates -- sorry ...
  !
 charge density and potential will be updated during run
 spin polarized calculation
 RMM-DIIS sequential band-by-band and
  variant of blocked Davidson during initial phase
 perform sub-space diagonalisation
    before iterative eigenvector-optimisation
 modified Broyden-mixing scheme, WC =      100.0
 initial mixing is a Kerker type mixing with AMIX =  0.4000 and BMIX =      1.0000
 Hartree-type preconditioning will be used
 using additional bands          190
 real space projection scheme for non local part
 use partial core corrections
 calculate Harris-corrections to forces 
   (improved forces if not selfconsistent)
 use gradient corrections 
 use of overlap-Matrix (Vanderbilt PP)
 Gauss-broadening in eV      SIGMA  =   0.03


--------------------------------------------------------------------------------------------------------


  energy-cutoff  :      450.00
  volume of cell :     3166.32
      direct lattice vectors                 reciprocal lattice vectors
    17.415999413  0.000000000  0.000000000     0.057418468  0.033150568  0.000000000
    -4.975999832  8.618684528  0.000000000     0.000000000  0.116026987  0.000000000
     0.000000000  0.000000000 21.094299316     0.000000000  0.000000000  0.047406173

  length of vectors
    17.415999413  9.951999664 21.094299316     0.066301136  0.116026987  0.047406173


 
 k-points in units of 2pi/SCALE and weight: K-POINTS                                
   0.00000000  0.00000000  0.00000000       0.111
   0.01913949  0.01105019  0.00000000       0.222
   0.00000000  0.03867566  0.00000000       0.222
   0.01913949  0.04972585  0.00000000       0.222
  -0.01913949  0.02762547  0.00000000       0.222
 
 k-points in reciprocal lattice and weights: K-POINTS                                
   0.00000000  0.00000000  0.00000000       0.111
   0.33333333 -0.00000000  0.00000000       0.222
   0.00000000  0.33333333  0.00000000       0.222
   0.33333333  0.33333333  0.00000000       0.222
  -0.33333333  0.33333333  0.00000000       0.222
 
 position of ions in fractional coordinates (direct lattice) 
   0.00001537  0.24997681  0.18957704
   0.00001537  0.49997681  0.18957704
   0.00001537  0.74997681  0.18957704
   0.00001537  0.99997681  0.18957704
   0.14287251  0.24997681  0.18957704
   0.14287251  0.49997681  0.18957704
   0.14287251  0.74997681  0.18957704
   0.14287251  0.99997681  0.18957704
   0.28572965  0.24997681  0.18957704
   0.28572965  0.49997681  0.18957704
   0.28572965  0.74997681  0.18957704
   0.28572965  0.99997681  0.18957704
   0.42858680  0.24997681  0.18957704
   0.42858680  0.49997681  0.18957704
   0.42858680  0.74997681  0.18957704
   0.42858680  0.99997681  0.18957704
   0.57144394  0.24997681  0.18957704
   0.57144394  0.49997681  0.18957704
   0.57144394  0.74997681  0.18957704
   0.57144394  0.99997681  0.18957704
   0.71430108  0.24997681  0.18957704
   0.71430108  0.49997681  0.18957704
   0.71430108  0.74997681  0.18957704
   0.71430108  0.99997681  0.18957704
   0.85715822  0.24997681  0.18957704
   0.85715822  0.49997681  0.18957704
   0.85715822  0.74997681  0.18957704
   0.85715822  0.99997681  0.18957704
   0.09522464  0.08331407  0.09489846
   0.09522464  0.33331407  0.09489846
   0.09522464  0.58331407  0.09489846
   0.09522464  0.83331407  0.09489846
   0.23808178  0.08331407  0.09489846
   0.23808178  0.33331407  0.09489846
   0.23808178  0.58331407  0.09489846
   0.23808178  0.83331407  0.09489846
   0.38093893  0.08331407  0.09489846
   0.38093893  0.33331407  0.09489846
   0.38093893  0.58331407  0.09489846
   0.38093893  0.83331407  0.09489846
   0.52379607  0.08331407  0.09489846
   0.52379607  0.33331407  0.09489846
   0.52379607  0.58331407  0.09489846
   0.52379607  0.83331407  0.09489846
   0.66665321  0.08331407  0.09489846
   0.66665321  0.33331407  0.09489846
   0.66665321  0.58331407  0.09489846
   0.66665321  0.83331407  0.09489846
   0.80951035  0.08331407  0.09489846
   0.80951035  0.33331407  0.09489846
   0.80951035  0.58331407  0.09489846
   0.80951035  0.83331407  0.09489846
   0.95236750  0.08331407  0.09489846
   0.95236750  0.33331407  0.09489846
   0.95236750  0.58331407  0.09489846
   0.95236750  0.83331407  0.09489846
   0.04761857  0.16666751  0.00000001
   0.04761857  0.41666751  0.00000001
   0.04761857  0.66666751  0.00000001
   0.04761857  0.91666751  0.00000001
   0.19047572  0.16666751  0.00000001
   0.19047572  0.41666751  0.00000001
   0.19047572  0.66666751  0.00000001
   0.19047572  0.91666751  0.00000001
   0.33333286  0.16666751  0.00000001
   0.33333286  0.41666751  0.00000001
   0.33333286  0.66666751  0.00000001
   0.33333286  0.91666751  0.00000001
   0.47619000  0.16666751  0.00000001
   0.47619000  0.41666751  0.00000001
   0.47619000  0.66666751  0.00000001
   0.47619000  0.91666751  0.00000001
   0.61904714  0.16666751  0.00000001
   0.61904714  0.41666751  0.00000001
   0.61904714  0.66666751  0.00000001
   0.61904714  0.91666751  0.00000001
   0.76190429  0.16666751  0.00000001
   0.76190429  0.41666751  0.00000001
   0.76190429  0.66666751  0.00000001
   0.76190429  0.91666751  0.00000001
   0.90476143  0.16666751  0.00000001
   0.90476143  0.41666751  0.00000001
   0.90476143  0.66666751  0.00000001
   0.90476143  0.91666751  0.00000001
   0.24092322  0.22002025  0.28713610
   0.33511208  0.28979173  0.28380217
   0.39519837  0.45826691  0.28448232
   0.35025216  0.54907234  0.27957289
   0.25526729  0.47922600  0.28281805
   0.19708658  0.31255169  0.28571440
   0.22621928  0.98787223  0.33508703
   0.47548115  0.53304258  0.32883002
   0.53319473  0.45837301  0.34432850
   0.64562145  0.42027125  0.28367873
   0.61202769  0.25469316  0.28175291
   0.73811507  0.52820075  0.29325845
   0.67627839  0.20274297  0.28394321
   0.80222074  0.47680220  0.28598171
   0.76902155  0.31136956  0.28341568
   0.48409814  0.29106768  0.37015465
   0.84746041  0.77153456  0.33725811
   0.36131141  0.21555013  0.29785722
   0.38851481  0.67088547  0.29436842
   0.22697513  0.54932303  0.29942691
   0.07955950  0.15511712  0.30991335
   0.27247484  0.05507980  0.37350512
   0.17082322  0.87852640  0.35254452
   0.26111334  0.96090606  0.29738824
   0.52074107  0.65042838  0.30988167
   0.58033072  0.53419317  0.38107700
   0.49021528  0.61659185  0.41699441
   0.54606854  0.17534465  0.29998683
   0.65349239  0.08284551  0.29798772
   0.86879518  0.55045023  0.30500838
   0.81534123  0.27131391  0.29565753
   0.45205736  0.20994592  0.33008125
   0.53348438  0.26473551  0.39031654
   0.40860137  0.35210089  0.41637675
   0.89014855  0.80516756  0.29422445
   0.84818925  0.87445965  0.35641390
   0.87187946  0.72041917  0.37273693
   0.12056211  0.26397525  0.32098308
   0.18604749  0.07169857  0.30909195
   0.58558014  0.47571216  0.28817860
   0.44009744  0.54728870  0.39028973
   0.42122554  0.26606279  0.41836921
   0.75663497  0.66498229  0.32146053
 
 position of ions in cartesian coordinates  (Angst):
  -1.24361694  2.15447126  3.99899477
  -2.48761690  4.30914239  3.99899477
  -3.73161686  6.46381352  3.99899477
  -4.97561681  8.61848466  3.99899477
   1.24438298  2.15447126  3.99899477
   0.00038302  4.30914239  3.99899477
  -1.24361694  6.46381352  3.99899477
  -2.48761690  8.61848466  3.99899477
   3.73238289  2.15447126  3.99899477
   2.48838294  4.30914239  3.99899477
   1.24438298  6.46381352  3.99899477
   0.00038302  8.61848466  3.99899477
   6.22038281  2.15447126  3.99899477
   4.97638285  4.30914239  3.99899477
   3.73238289  6.46381352  3.99899477
   2.48838294  8.61848466  3.99899477
   8.70838273  2.15447126  3.99899477
   7.46438277  4.30914239  3.99899477
   6.22038281  6.46381352  3.99899477
   4.97638285  8.61848466  3.99899477
  11.19638264  2.15447126  3.99899477
   9.95238268  4.30914239  3.99899477
   8.70838273  6.46381352  3.99899477
   7.46438277  8.61848466  3.99899477
  13.68438256  2.15447126  3.99899477
  12.44038260  4.30914239  3.99899477
  11.19638264  6.46381352  3.99899477
   9.95238268  8.61848466  3.99899477
   1.24386148  0.71805767  2.00181652
  -0.00013847  2.87272880  2.00181652
  -1.24413843  5.02739993  2.00181652
  -2.48813839  7.18207107  2.00181652
   3.73186140  0.71805767  2.00181652
   2.48786144  2.87272880  2.00181652
   1.24386148  5.02739993  2.00181652
  -0.00013847  7.18207107  2.00181652
   6.21986132  0.71805767  2.00181652
   4.97586136  2.87272880  2.00181652
   3.73186140  5.02739993  2.00181652
   2.48786144  7.18207107  2.00181652
   8.70786123  0.71805767  2.00181652
   7.46386128  2.87272880  2.00181652
   6.21986132  5.02739993  2.00181652
   4.97586136  7.18207107  2.00181652
  11.19586115  0.71805767  2.00181652
   9.95186119  2.87272880  2.00181652
   8.70786123  5.02739993  2.00181652
   7.46386128  7.18207107  2.00181652
  13.68386107  0.71805767  2.00181652
  12.43986111  2.87272880  2.00181652
  11.19586115  5.02739993  2.00181652
   9.95186119  7.18207107  2.00181652
  16.17186098  0.71805767  2.00181652
  14.92786102  2.87272880  2.00181652
  13.68386107  5.02739993  2.00181652
  12.43986111  7.18207107  2.00181652
  -0.00001246  1.43645466  0.00000018
  -1.24401242  3.59112579  0.00000018
  -2.48801237  5.74579692  0.00000018
  -3.73201233  7.90046805  0.00000018
   2.48798746  1.43645466  0.00000018
   1.24398750  3.59112579  0.00000018
  -0.00001246  5.74579692  0.00000018
  -1.24401241  7.90046805  0.00000018
   4.97598738  1.43645466  0.00000018
   3.73198742  3.59112579  0.00000018
   2.48798746  5.74579692  0.00000018
   1.24398750  7.90046805  0.00000018
   7.46398729  1.43645466  0.00000018
   6.21998733  3.59112579  0.00000018
   4.97598738  5.74579692  0.00000018
   3.73198742  7.90046805  0.00000018
   9.95198721  1.43645466  0.00000018
   8.70798725  3.59112579  0.00000018
   7.46398729  5.74579692  0.00000018
   6.21998733  7.90046805  0.00000018
  12.43998712  1.43645466  0.00000018
  11.19598717  3.59112579  0.00000018
   9.95198721  5.74579692  0.00000018
   8.70798725  7.90046805  0.00000018
  14.92798704  1.43645466  0.00000018
  13.68398708  3.59112579  0.00000018
  12.43998712  5.74579692  0.00000018
  11.19598717  7.90046805  0.00000018
   3.10109784  1.89628513  6.05693476
   4.39430809  2.49762353  5.98660793
   4.60243851  3.94965792  6.00095525
   3.36780752  4.73228132  5.89739425
   2.06110650  4.13029770  5.96584856
   1.87720260  2.69378438  6.02694507
  -0.97581717  8.51415910  7.06842621
   5.62855961  4.59412587  6.93643893
   7.00525516  3.95057237  7.26336848
   9.15287310  3.62218533  5.98400396
   9.39172087  2.19511997  5.94338019
  10.22668486  4.55239561  6.18608152
  10.76921513  1.74737770  5.98958297
  11.59890830  4.10940775  6.03258373
  11.84390394  2.68359605  5.97845518
   6.98270014  2.50862054  7.80815289
  10.92021423  6.64961297  7.11422351
   5.22002191  1.85775855  6.28308927
   3.42804773  5.78215025  6.20949555
   1.21956737  4.73444187  6.31620092
   0.61374549  1.33690549  6.53740494
   4.47134461  0.47471544  7.87882870
  -1.39649016  7.57174191  7.43667968
  -0.23391868  8.28174619  6.27319655
   5.83269473  5.60583700  6.53673661
   7.44889431  4.60404242  8.03855227
   5.46942800  5.31421068  8.79620487
   8.63781445  1.51124021  6.32801200
  10.96898390  0.71401929  6.28584213
  12.39189609  4.74415684  6.43393800
  12.84992444  2.33836896  6.23668851
   6.82833977  1.80945766  6.96283263
   7.97383985  2.28167188  8.23345384
   5.36414725  3.03464653  8.78317577
  11.49631301  6.93948518  6.20645853
  10.42075245  7.53669182  7.51830149
  11.59984643  6.20906554  7.86262429
   0.78616886  2.27511940  6.77091318
   2.88343092  0.61794739  6.52007802
   7.83131972  4.10001302  6.07892564
   4.94142826  4.71690865  8.23288837
   6.01213538  2.29311125  8.82520524
   9.86860236  5.73127258  6.78098462
 


--------------------------------------------------------------------------------------------------------


 k-point  1 :   0.0000 0.0000 0.0000  plane waves:   68637
 k-point  2 :   0.3333-0.0000 0.0000  plane waves:   68670
 k-point  3 :   0.0000 0.3333 0.0000  plane waves:   68650
 k-point  4 :   0.3333 0.3333 0.0000  plane waves:   68645
 k-point  5 :  -0.3333 0.3333 0.0000  plane waves:   68661

 maximum and minimum number of plane-waves per node :     68670    68637

 maximum number of plane-waves:     68670
 maximum index in each direction: 
   IXMAX=   30   IYMAX=   17   IZMAX=   36
   IXMIN=  -30   IYMIN=  -17   IZMIN=  -36


 serial   3D FFT for wavefunctions
 parallel 3D FFT for charge:
    minimum data exchange during FFTs selected (reduces bandwidth)


 total amount of memory used by VASP MPI-rank0   279832. kBytes
=======================================================================

   base      :      30000. kBytes
   nonlr-proj:      29425. kBytes
   fftplans  :       5452. kBytes
   grid      :      53059. kBytes
   one-center:       3950. kBytes
   wavefun   :     157946. kBytes
 
     INWAV:  cpu time    0.0000: real time    0.0003
 Broyden mixing: mesh for mixing (old mesh)
   NGX = 61   NGY = 35   NGZ = 73
  (NGX  =180   NGY  =108   NGZ  =224)
  gives a total of 155855 points

 initial charge density was supplied:
 charge density of overlapping atoms calculated
 number of electron     964.0000000 magnetization     127.0000000
 keeping initial charge density in first step


--------------------------------------------------------------------------------------------------------


 Maximum index for non-local projection operator         1699
 Maximum index for augmentation-charges          348 (set IRDMAX)


--------------------------------------------------------------------------------------------------------


 First call to EWALD:  gamma=   0.121
 Maximum number of real-space cells 3x 4x 2
 Maximum number of reciprocal cells 3x 2x 4

    FEWALD:  cpu time    0.0047: real time    0.0047


--------------------------------------- Iteration      1(   1)  ---------------------------------------


    POTLOK:  cpu time    0.1972: real time    0.2104
    SETDIJ:  cpu time    0.0239: real time    0.0278
     EDDAV:  cpu time   44.3982: real time   44.4880
       DOS:  cpu time    0.0026: real time    0.0050
    --------------------------------------------
      LOOP:  cpu time   44.6218: real time   44.7312

 eigenvalue-minimisations  : 13440
 total energy-change (2. order) : 0.7589953E+04  (-0.3836542E+05)
 number of electron     964.0000000 magnetization     127.0000000
 augmentation part      964.0000000 magnetization     127.0000000

 DIPCOR: dipole corrections for dipol
 direction  3 min pos   149,
 dipolmoment           0.000000      0.000000     -0.000582 electrons x Angstroem
 Tr[quadrupol]    -33671.778318

 energy correction for charged system         0.000000 eV
 dipol+quadrupol energy correction           -0.000000 eV
 added-field ion interaction         -0.025227 eV  (added to PSCEN)


 Free energy of the ion-electron system (eV)
  ---------------------------------------------------
  alpha Z        PSCENC =      1467.67461295
  Ewald energy   TEWEN  =    334479.53563395
  -Hartree energ DENC   =   -427029.54329886
  -exchange      EXHF   =         0.00000000
  -V(xc)+E(xc)   XCENC  =      3097.83406312
  PAW double counting   =     84835.00388706   -90469.81730700
  entropy T*S    EENTRO =        -0.02233698
  eigenvalues    EBANDS =      5339.82998580
  atomic energy  EATOM  =     95869.45763542
  Solvation  Ediel_sol  =         0.00000000
  ---------------------------------------------------
  free energy    TOTEN  =      7589.95287545 eV

  energy without entropy =     7589.97521243  energy(sigma->0) =     7589.96404394


--------------------------------------------------------------------------------------------------------




--------------------------------------- Iteration      1(   2)  ---------------------------------------


     EDDAV:  cpu time   44.7958: real time   44.8385
       DOS:  cpu time    0.0049: real time    0.0049
    --------------------------------------------
      LOOP:  cpu time   44.8007: real time   44.8434

 eigenvalue-minimisations  : 13488
 total energy-change (2. order) :-0.7215083E+04  (-0.6702434E+04)
 number of electron     964.0000000 magnetization     127.0000000
 augmentation part      964.0000000 magnetization     127.0000000

 DIPCOR: dipole corrections for dipol
 direction  3 min pos   149,
 dipolmoment           0.000000      0.000000     -0.000582 electrons x Angstroem
 Tr[quadrupol]    -33671.778318

 energy correction for charged system         0.000000 eV
 dipol+quadrupol energy correction           -0.000000 eV
 added-field ion interaction         -0.025227 eV  (added to PSCEN)


 Free energy of the ion-electron system (eV)
  ---------------------------------------------------
  alpha Z        PSCENC =      1467.67461295
  Ewald energy   TEWEN  =    334479.53563395
  -Hartree energ DENC   =   -427029.54329886
  -exchange      EXHF   =         0.00000000
  -V(xc)+E(xc)   XCENC  =      3097.83406312
  PAW double counting   =     84835.00388706   -90469.81730700
  entropy T*S    EENTRO =        -0.04395922
  eigenvalues    EBANDS =     -1875.23172369
  atomic energy  EATOM  =     95869.45763542
  Solvation  Ediel_sol  =         0.00000000
  ---------------------------------------------------
  free energy    TOTEN  =       374.86954373 eV

  energy without entropy =      374.91350295  energy(sigma->0) =      374.89152334


--------------------------------------------------------------------------------------------------------




--------------------------------------- Iteration      1(   3)  ---------------------------------------


     EDDAV:  cpu time   58.8274: real time   58.8631
       DOS:  cpu time    0.0043: real time    0.0043
    --------------------------------------------
      LOOP:  cpu time   58.8317: real time   58.8674

 eigenvalue-minimisations  : 18576
 total energy-change (2. order) :-0.1044271E+04  (-0.9439995E+03)
 number of electron     964.0000000 magnetization     127.0000000
 augmentation part      964.0000000 magnetization     127.0000000

 DIPCOR: dipole corrections for dipol
 direction  3 min pos   149,
 dipolmoment           0.000000      0.000000     -0.000582 electrons x Angstroem
 Tr[quadrupol]    -33671.778318

 energy correction for charged system         0.000000 eV
 dipol+quadrupol energy correction           -0.000000 eV
 added-field ion interaction         -0.025227 eV  (added to PSCEN)


 Free energy of the ion-electron system (eV)
  ---------------------------------------------------
  alpha Z        PSCENC =      1467.67461295
  Ewald energy   TEWEN  =    334479.53563395
  -Hartree energ DENC   =   -427029.54329886
  -exchange      EXHF   =         0.00000000
  -V(xc)+E(xc)   XCENC  =      3097.83406312
  PAW double counting   =     84835.00388706   -90469.81730700
  entropy T*S    EENTRO =        -0.07300110
  eigenvalues    EBANDS =     -2919.47331436
  atomic energy  EATOM  =     95869.45763542
  Solvation  Ediel_sol  =         0.00000000
  ---------------------------------------------------
  free energy    TOTEN  =      -669.40108882 eV

  energy without entropy =     -669.32808772  energy(sigma->0) =     -669.36458827


--------------------------------------------------------------------------------------------------------




--------------------------------------- Iteration      1(   4)  ---------------------------------------


     EDDAV:  cpu time   55.0545: real time   55.0854
       DOS:  cpu time    0.0040: real time    0.0040
    --------------------------------------------
      LOOP:  cpu time   55.0585: real time   55.0894

 eigenvalue-minimisations  : 16656
 total energy-change (2. order) :-0.7643246E+02  (-0.7433179E+02)
 number of electron     964.0000000 magnetization     127.0000000
 augmentation part      964.0000000 magnetization     127.0000000

 DIPCOR: dipole corrections for dipol
 direction  3 min pos   149,
 dipolmoment           0.000000      0.000000     -0.000582 electrons x Angstroem
 Tr[quadrupol]    -33671.778318

 energy correction for charged system         0.000000 eV
 dipol+quadrupol energy correction           -0.000000 eV
 added-field ion interaction         -0.025227 eV  (added to PSCEN)


 Free energy of the ion-electron system (eV)
  ---------------------------------------------------
  alpha Z        PSCENC =      1467.67461295
  Ewald energy   TEWEN  =    334479.53563395
  -Hartree energ DENC   =   -427029.54329886
  -exchange      EXHF   =         0.00000000
  -V(xc)+E(xc)   XCENC  =      3097.83406312
  PAW double counting   =     84835.00388706   -90469.81730700
  entropy T*S    EENTRO =        -0.06613569
  eigenvalues    EBANDS =     -2995.91263560
  atomic energy  EATOM  =     95869.45763542
  Solvation  Ediel_sol  =         0.00000000
  ---------------------------------------------------
  free energy    TOTEN  =      -745.83354466 eV

  energy without entropy =     -745.76740897  energy(sigma->0) =     -745.80047681


--------------------------------------------------------------------------------------------------------




--------------------------------------- Iteration      1(   5)  ---------------------------------------


     EDDAV:  cpu time   50.3334: real time   50.3770
       DOS:  cpu time    0.0042: real time    0.0042
    --------------------------------------------
      LOOP:  cpu time   50.3376: real time   50.3812

 eigenvalue-minimisations  : 15408
 total energy-change (2. order) :-0.2080547E+01  (-0.2067975E+01)
 number of electron     964.0000000 magnetization     127.0000000
 augmentation part      964.0000000 magnetization     127.0000000

 DIPCOR: dipole corrections for dipol
 direction  3 min pos   149,
 dipolmoment           0.000000      0.000000     -0.000582 electrons x Angstroem
 Tr[quadrupol]    -33671.778318

 energy correction for charged system         0.000000 eV
 dipol+quadrupol energy correction           -0.000000 eV
 added-field ion interaction         -0.025227 eV  (added to PSCEN)


 Free energy of the ion-electron system (eV)
  ---------------------------------------------------
  alpha Z        PSCENC =      1467.67461295
  Ewald energy   TEWEN  =    334479.53563395
  -Hartree energ DENC   =   -427029.54329886
  -exchange      EXHF   =         0.00000000
  -V(xc)+E(xc)   XCENC  =      3097.83406312
  PAW double counting   =     84835.00388706   -90469.81730700
  entropy T*S    EENTRO =        -0.06572750
  eigenvalues    EBANDS =     -2997.99359041
  atomic energy  EATOM  =     95869.45763542
  Solvation  Ediel_sol  =         0.00000000
  ---------------------------------------------------
  free energy    TOTEN  =      -747.91409127 eV

  energy without entropy =     -747.84836378  energy(sigma->0) =     -747.88122753


--------------------------------------------------------------------------------------------------------




--------------------------------------- Iteration      1(   6)  ---------------------------------------


     EDDAV:  cpu time   58.3684: real time   58.4011
       DOS:  cpu time    0.0041: real time    0.0041
    --------------------------------------------
      LOOP:  cpu time   58.3725: real time   58.4052

 eigenvalue-minimisations  : 18384
 total energy-change (2. order) :-0.9687492E-01  (-0.9684019E-01)
 number of electron     964.0000000 magnetization     127.0000000
 augmentation part      964.0000000 magnetization     127.0000000

 DIPCOR: dipole corrections for dipol
 direction  3 min pos   149,
 dipolmoment           0.000000      0.000000     -0.000582 electrons x Angstroem
 Tr[quadrupol]    -33671.778318

 energy correction for charged system         0.000000 eV
 dipol+quadrupol energy correction           -0.000000 eV
 added-field ion interaction         -0.025227 eV  (added to PSCEN)


 Free energy of the ion-electron system (eV)
  ---------------------------------------------------
  alpha Z        PSCENC =      1467.67461295
  Ewald energy   TEWEN  =    334479.53563395
  -Hartree energ DENC   =   -427029.54329886
  -exchange      EXHF   =         0.00000000
  -V(xc)+E(xc)   XCENC  =      3097.83406312
  PAW double counting   =     84835.00388706   -90469.81730700
  entropy T*S    EENTRO =        -0.06571665
  eigenvalues    EBANDS =     -2998.09047618
  atomic energy  EATOM  =     95869.45763542
  Solvation  Ediel_sol  =         0.00000000
  ---------------------------------------------------
  free energy    TOTEN  =      -748.01096619 eV

  energy without entropy =     -747.94524954  energy(sigma->0) =     -747.97810786


--------------------------------------------------------------------------------------------------------




--------------------------------------- Iteration      1(   7)  ---------------------------------------


     EDDAV:  cpu time   60.9842: real time   61.0255
       DOS:  cpu time    0.0043: real time    0.0043
    CHARGE:  cpu time    1.8194: real time    1.8229
    MIXING:  cpu time    0.0043: real time    0.0054
    --------------------------------------------
      LOOP:  cpu time   62.8123: real time   62.8582

 eigenvalue-minimisations  : 17760
 total energy-change (2. order) :-0.4472805E-02  (-0.4472550E-02)
 number of electron     964.0001305 magnetization     120.4454527
 augmentation part      476.0987527 magnetization     105.5701296

 DIPCOR: dipole corrections for dipol
 direction  3 min pos   149,
 dipolmoment           0.000000      0.000000     -0.000582 electrons x Angstroem
 Tr[quadrupol]    -33671.778318

 energy correction for charged system         0.000000 eV
 dipol+quadrupol energy correction           -0.000000 eV
 added-field ion interaction         -0.025227 eV  (added to PSCEN)


 Broyden mixing:
  rms(total) = 0.10072E+02    rms(broyden)= 0.10071E+02
  rms(prec ) = 0.10591E+02
  weight for this iteration     100.00

 Free energy of the ion-electron system (eV)
  ---------------------------------------------------
  alpha Z        PSCENC =      1467.67461295
  Ewald energy   TEWEN  =    334479.53563395
  -Hartree energ DENC   =   -427029.54329886
  -exchange      EXHF   =         0.00000000
  -V(xc)+E(xc)   XCENC  =      3097.83406312
  PAW double counting   =     84835.00388706   -90469.81730700
  entropy T*S    EENTRO =        -0.06571610
  eigenvalues    EBANDS =     -2998.09494953
  atomic energy  EATOM  =     95869.45763542
  Solvation  Ediel_sol  =         0.00000000
  ---------------------------------------------------
  free energy    TOTEN  =      -748.01543900 eV

  energy without entropy =     -747.94972289  energy(sigma->0) =     -747.98258094


--------------------------------------------------------------------------------------------------------




--------------------------------------- Iteration      1(   8)  ---------------------------------------


    POTLOK:  cpu time    0.1688: real time    0.1695
    SETDIJ:  cpu time    0.0233: real time    0.0233
    EDDIAG:  cpu time    8.9988: real time    9.0077
  RMM-DIIS:  cpu time   22.6546: real time   22.6741
    ORTHCH:  cpu time    2.5746: real time    2.5754
       DOS:  cpu time    0.0014: real time    0.0014
    CHARGE:  cpu time    1.8092: real time    1.8099
    MIXING:  cpu time    0.0046: real time    0.0095
    --------------------------------------------
      LOOP:  cpu time   36.2353: real time   36.2708

 eigenvalue-minimisations  : 13488
 total energy-change (2. order) : 0.3076479E+02  (-0.1164285E+03)
 number of electron     964.0001758 magnetization     116.4603598
 augmentation part      572.7781981 magnetization     107.7397618

 DIPCOR: dipole corrections for dipol
 direction  3 min pos   145,
 dipolmoment           0.000000      0.000000      2.703532 electrons x Angstroem
 Tr[quadrupol]    -33673.471917

 energy correction for charged system         0.000000 eV
 dipol+quadrupol energy correction           -0.209997 eV
 added-field ion interaction         60.802520 eV  (added to PSCEN)


 Broyden mixing:
  rms(total) = 0.12630E+02    rms(broyden)= 0.12628E+02
  rms(prec ) = 0.14090E+02
  weight for this iteration     100.00

 eigenvalues of (default mixing * dielectric matrix)
  average eigenvalue GAMMA=   0.3919
  0.3919

 Free energy of the ion-electron system (eV)
  ---------------------------------------------------
  alpha Z        PSCENC =      1528.29236287
  Ewald energy   TEWEN  =    334479.53563395
  -Hartree energ DENC   =   -425060.32623779
  -exchange      EXHF   =         0.00000000
  -V(xc)+E(xc)   XCENC  =      3077.50853754
  PAW double counting   =     91030.85732893   -96266.78621685
  entropy T*S    EENTRO =        -0.06219222
  eigenvalues    EBANDS =     -5375.72749607
  atomic energy  EATOM  =     95869.45763542
  Solvation  Ediel_sol  =         0.00000000
  ---------------------------------------------------
  free energy    TOTEN  =      -717.25064421 eV

  energy without entropy =     -717.18845199  energy(sigma->0) =     -717.21954810


--------------------------------------------------------------------------------------------------------




--------------------------------------- Iteration      1(   9)  ---------------------------------------


    POTLOK:  cpu time    0.1711: real time    0.1717
    SETDIJ:  cpu time    0.0232: real time    0.0232
    EDDIAG:  cpu time    8.8922: real time    8.8972
  RMM-DIIS:  cpu time   22.5127: real time   22.5312
    ORTHCH:  cpu time    2.5741: real time    2.5746
       DOS:  cpu time    0.0014: real time    0.0014
    CHARGE:  cpu time    1.8010: real time    1.8030
    MIXING:  cpu time    0.0043: real time    0.0044
    --------------------------------------------
      LOOP:  cpu time   35.9801: real time   36.0067

 eigenvalue-minimisations  : 13440
 total energy-change (2. order) :-0.3738151E+02  (-0.2820172E+02)
 number of electron     964.0001068 magnetization     114.4697228
 augmentation part      516.2641321 magnetization      95.4723069

 DIPCOR: dipole corrections for dipol
 direction  3 min pos   147,
 dipolmoment           0.000000      0.000000     -4.147708 electrons x Angstroem
 Tr[quadrupol]    -33679.067114

 energy correction for charged system         0.000000 eV
 dipol+quadrupol energy correction           -0.494273 eV
 added-field ion interaction       -136.554690 eV  (added to PSCEN)


 Broyden mixing:
  rms(total) = 0.15547E+02    rms(broyden)= 0.15546E+02
  rms(prec ) = 0.19749E+02
  weight for this iteration     100.00

 eigenvalues of (default mixing * dielectric matrix)
  average eigenvalue GAMMA=   0.3154
  0.4716  0.1591

 Free energy of the ion-electron system (eV)
  ---------------------------------------------------
  alpha Z        PSCENC =      1330.65087647
  Ewald energy   TEWEN  =    334479.53563395
  -Hartree energ DENC   =   -426212.47889479
  -exchange      EXHF   =         0.00000000
  -V(xc)+E(xc)   XCENC  =      3093.28223768
  PAW double counting   =     94224.46315891   -99748.79497243
  entropy T*S    EENTRO =        -0.06042308
  eigenvalues    EBANDS =     -3790.68740633
  atomic energy  EATOM  =     95869.45763542
  Solvation  Ediel_sol  =         0.00000000
  ---------------------------------------------------
  free energy    TOTEN  =      -754.63215421 eV

  energy without entropy =     -754.57173113  energy(sigma->0) =     -754.60194267


--------------------------------------------------------------------------------------------------------




--------------------------------------- Iteration      1(  10)  ---------------------------------------


    POTLOK:  cpu time    0.1695: real time    0.1707
    SETDIJ:  cpu time    0.0231: real time    0.0231
    EDDIAG:  cpu time    8.8607: real time    8.8652
  RMM-DIIS:  cpu time   22.4810: real time   22.5094
    ORTHCH:  cpu time    2.5807: real time    2.5821
       DOS:  cpu time    0.0014: real time    0.0014
    CHARGE:  cpu time    1.7943: real time    1.7978
    MIXING:  cpu time    0.0047: real time    0.0047
    --------------------------------------------
      LOOP:  cpu time   35.9153: real time   35.9543

 eigenvalue-minimisations  : 13440
 total energy-change (2. order) : 0.7168276E+02  (-0.9564767E+01)
 number of electron     964.0001761 magnetization     112.2473066
 augmentation part      522.3047210 magnetization      97.9769591

 DIPCOR: dipole corrections for dipol
 direction  3 min pos   152,
 dipolmoment           0.000000      0.000000     -0.874872 electrons x Angstroem
 Tr[quadrupol]    -33691.148214

 energy correction for charged system         0.000000 eV
 dipol+quadrupol energy correction           -0.021991 eV
 added-field ion interaction        -51.621965 eV  (added to PSCEN)


 Broyden mixing:
  rms(total) = 0.13354E+02    rms(broyden)= 0.13354E+02
  rms(prec ) = 0.16522E+02
  weight for this iteration     100.00

 eigenvalues of (default mixing * dielectric matrix)
  average eigenvalue GAMMA=   0.2828
  0.4984  0.2656  0.0842

 Free energy of the ion-electron system (eV)
  ---------------------------------------------------
  alpha Z        PSCENC =      1416.05588488
  Ewald energy   TEWEN  =    334479.53563395
  -Hartree energ DENC   =   -426561.68012756
  -exchange      EXHF   =         0.00000000
  -V(xc)+E(xc)   XCENC  =      3093.50728295
  PAW double counting   =     95358.60348889  -100946.22131655
  entropy T*S    EENTRO =        -0.04509194
  eigenvalues    EBANDS =     -3392.16277995
  atomic energy  EATOM  =     95869.45763542
  Solvation  Ediel_sol  =         0.00000000
  ---------------------------------------------------
  free energy    TOTEN  =      -682.94938991 eV

  energy without entropy =     -682.90429796  energy(sigma->0) =     -682.92684393


--------------------------------------------------------------------------------------------------------




--------------------------------------- Iteration      1(  11)  ---------------------------------------


    POTLOK:  cpu time    0.1694: real time    0.1696
    SETDIJ:  cpu time    0.0233: real time    0.0234
    EDDIAG:  cpu time    8.8674: real time    8.8879
  RMM-DIIS:  cpu time   22.5068: real time   22.5429
    ORTHCH:  cpu time    2.5796: real time    2.5822
       DOS:  cpu time    0.0014: real time    0.0014
    CHARGE:  cpu time    1.7992: real time    1.8010
    MIXING:  cpu time    0.0047: real time    0.0047
    --------------------------------------------
      LOOP:  cpu time   35.9520: real time   36.0130

 eigenvalue-minimisations  : 13456
 total energy-change (2. order) : 0.9167182E+01  (-0.7765077E+01)
 number of electron     964.0001480 magnetization     107.6682668
 augmentation part      519.5631460 magnetization      89.3104329

 DIPCOR: dipole corrections for dipol
 direction  3 min pos   153,
 dipolmoment           0.000000      0.000000     -2.366117 electrons x Angstroem
 Tr[quadrupol]    -33688.379635

 energy correction for charged system         0.000000 eV
 dipol+quadrupol energy correction           -0.160851 eV
 added-field ion interaction       -151.955805 eV  (added to PSCEN)


 Broyden mixing:
  rms(total) = 0.10462E+02    rms(broyden)= 0.10462E+02
  rms(prec ) = 0.13197E+02
  weight for this iteration     100.00

 eigenvalues of (default mixing * dielectric matrix)
  average eigenvalue GAMMA=   0.3278
  0.6419  0.4776  0.0959  0.0959

 Free energy of the ion-electron system (eV)
  ---------------------------------------------------
  alpha Z        PSCENC =      1315.58318409
  Ewald energy   TEWEN  =    334479.53563395
  -Hartree energ DENC   =   -426647.33784956
  -exchange      EXHF   =         0.00000000
  -V(xc)+E(xc)   XCENC  =      3094.03689167
  PAW double counting   =     96308.53578816  -101931.97672521
  entropy T*S    EENTRO =        -0.05766365
  eigenvalues    EBANDS =     -3161.55910250
  atomic energy  EATOM  =     95869.45763542
  Solvation  Ediel_sol  =         0.00000000
  ---------------------------------------------------
  free energy    TOTEN  =      -673.78220763 eV

  energy without entropy =     -673.72454398  energy(sigma->0) =     -673.75337580


--------------------------------------------------------------------------------------------------------




--------------------------------------- Iteration      1(  12)  ---------------------------------------


    POTLOK:  cpu time    0.1695: real time    0.1708
    SETDIJ:  cpu time    0.0233: real time    0.0233
    EDDIAG:  cpu time    8.9661: real time    8.9747
  RMM-DIIS:  cpu time   22.5313: real time   22.5516
    ORTHCH:  cpu time    2.5758: real time    2.5773
       DOS:  cpu time    0.0014: real time    0.0014
    CHARGE:  cpu time    1.8541: real time    1.8551
    MIXING:  cpu time    0.0268: real time    0.0268
    --------------------------------------------
      LOOP:  cpu time   36.1483: real time   36.1811

 eigenvalue-minimisations  : 13442
 total energy-change (2. order) :-0.2199962E+02  (-0.7493311E+01)
 number of electron     964.0001559 magnetization     104.4345925
 augmentation part      522.5974883 magnetization      86.4319134

 DIPCOR: dipole corrections for dipol
 direction  3 min pos   154,
 dipolmoment           0.000000      0.000000     -1.401281 electrons x Angstroem
 Tr[quadrupol]    -33690.525255

 energy correction for charged system         0.000000 eV
 dipol+quadrupol energy correction           -0.056416 eV
 added-field ion interaction        -97.302225 eV  (added to PSCEN)


 Broyden mixing:
  rms(total) = 0.14137E+02    rms(broyden)= 0.14136E+02
  rms(prec ) = 0.16461E+02
  weight for this iteration     100.00

 eigenvalues of (default mixing * dielectric matrix)
  average eigenvalue GAMMA=   0.3271
  0.7834  0.5497  0.1229  0.0979  0.0818

 Free energy of the ion-electron system (eV)
  ---------------------------------------------------
  alpha Z        PSCENC =      1370.34119931
  Ewald energy   TEWEN  =    334479.53563395
  -Hartree energ DENC   =   -426619.07248910
  -exchange      EXHF   =         0.00000000
  -V(xc)+E(xc)   XCENC  =      3092.38858581
  PAW double counting   =     98223.44695810  -103894.42716658
  entropy T*S    EENTRO =        -0.04878041
  eigenvalues    EBANDS =     -3217.40340030
  atomic energy  EATOM  =     95869.45763542
  Solvation  Ediel_sol  =         0.00000000
  ---------------------------------------------------
  free energy    TOTEN  =      -695.78182379 eV

  energy without entropy =     -695.73304338  energy(sigma->0) =     -695.75743359


--------------------------------------------------------------------------------------------------------




--------------------------------------- Iteration      1(  13)  ---------------------------------------


    POTLOK:  cpu time    0.1865: real time    0.1872
    SETDIJ:  cpu time    0.0233: real time    0.0233
    EDDIAG:  cpu time    8.8892: real time    8.8948
  RMM-DIIS:  cpu time   22.7439: real time   22.7624
    ORTHCH:  cpu time    2.5912: real time    2.5919
       DOS:  cpu time    0.0014: real time    0.0014
    CHARGE:  cpu time    1.7991: real time    1.7996
    MIXING:  cpu time    0.0053: real time    0.0053
    --------------------------------------------
      LOOP:  cpu time   36.2399: real time   36.2658

 eigenvalue-minimisations  : 13495
 total energy-change (2. order) : 0.6681429E+02  (-0.7431170E+01)
 number of electron     964.0001562 magnetization     102.1364884
 augmentation part      529.9488732 magnetization      83.0483886

 DIPCOR: dipole corrections for dipol
 direction  3 min pos   155,
 dipolmoment           0.000000      0.000000     -0.756650 electrons x Angstroem
 Tr[quadrupol]    -33690.149474

 energy correction for charged system         0.000000 eV
 dipol+quadrupol energy correction           -0.016449 eV
 added-field ion interaction        -56.487316 eV  (added to PSCEN)


 Broyden mixing:
  rms(total) = 0.93236E+01    rms(broyden)= 0.93229E+01
  rms(prec ) = 0.10780E+02
  weight for this iteration     100.00

 eigenvalues of (default mixing * dielectric matrix)
  average eigenvalue GAMMA=   0.3220
  0.9118  0.5650  0.1776  0.0979  0.0897  0.0897

 Free energy of the ion-electron system (eV)
  ---------------------------------------------------
  alpha Z        PSCENC =      1411.19607517
  Ewald energy   TEWEN  =    334479.53563395
  -Hartree energ DENC   =   -426501.89891384
  -exchange      EXHF   =         0.00000000
  -V(xc)+E(xc)   XCENC  =      3094.94311130
  PAW double counting   =     99351.58013027  -105045.87217786
  entropy T*S    EENTRO =        -0.06354320
  eigenvalues    EBANDS =     -3287.84548291
  atomic energy  EATOM  =     95869.45763542
  Solvation  Ediel_sol  =         0.00000000
  ---------------------------------------------------
  free energy    TOTEN  =      -628.96753171 eV

  energy without entropy =     -628.90398851  energy(sigma->0) =     -628.93576011


--------------------------------------------------------------------------------------------------------




--------------------------------------- Iteration      1(  14)  ---------------------------------------


    POTLOK:  cpu time    0.1708: real time    0.1728
    SETDIJ:  cpu time    0.0232: real time    0.0232
    EDDIAG:  cpu time    8.8836: real time    8.8900
  RMM-DIIS:  cpu time   22.6280: real time   22.6452
    ORTHCH:  cpu time    2.5808: real time    2.5815
       DOS:  cpu time    0.0014: real time    0.0014
    CHARGE:  cpu time    1.8167: real time    1.8193
    MIXING:  cpu time    0.0055: real time    0.0055
    --------------------------------------------
      LOOP:  cpu time   36.1101: real time   36.1389

 eigenvalue-minimisations  : 13458
 total energy-change (2. order) : 0.3054091E+02  (-0.4593340E+01)
 number of electron     964.0001496 magnetization      99.0190881
 augmentation part      531.2932292 magnetization      79.0393251

 DIPCOR: dipole corrections for dipol
 direction  3 min pos   155,
 dipolmoment           0.000000      0.000000     -1.154012 electrons x Angstroem
 Tr[quadrupol]    -33689.606463

 energy correction for charged system         0.000000 eV
 dipol+quadrupol energy correction           -0.038262 eV
 added-field ion interaction        -86.152174 eV  (added to PSCEN)


 Broyden mixing:
  rms(total) = 0.63675E+01    rms(broyden)= 0.63669E+01
  rms(prec ) = 0.71770E+01
  weight for this iteration     100.00

 eigenvalues of (default mixing * dielectric matrix)
  average eigenvalue GAMMA=   0.3484
  1.1659  0.5807  0.2924  0.1222  0.1222  0.0777  0.0777

 Free energy of the ion-electron system (eV)
  ---------------------------------------------------
  alpha Z        PSCENC =      1381.50940432
  Ewald energy   TEWEN  =    334479.53563395
  -Hartree energ DENC   =   -426545.30200510
  -exchange      EXHF   =         0.00000000
  -V(xc)+E(xc)   XCENC  =      3096.54870313
  PAW double counting   =    100125.52335540  -105842.64315740
  entropy T*S    EENTRO =        -0.06572134
  eigenvalues    EBANDS =     -3162.99046541
  atomic energy  EATOM  =     95869.45763542
  Solvation  Ediel_sol  =         0.00000000
  ---------------------------------------------------
  free energy    TOTEN  =      -598.42661702 eV

  energy without entropy =     -598.36089568  energy(sigma->0) =     -598.39375635


--------------------------------------------------------------------------------------------------------




--------------------------------------- Iteration      1(  15)  ---------------------------------------


    POTLOK:  cpu time    0.1718: real time    0.1723
    SETDIJ:  cpu time    0.0233: real time    0.0233
    EDDIAG:  cpu time    8.8719: real time    8.8771
  RMM-DIIS:  cpu time   22.7420: real time   22.7799
    ORTHCH:  cpu time    4.5544: real time    4.5566
       DOS:  cpu time    0.0014: real time    0.0014
    CHARGE:  cpu time    1.9909: real time    1.9915
    MIXING:  cpu time    0.0176: real time    0.0176
    --------------------------------------------
      LOOP:  cpu time   38.3734: real time   38.4198

 eigenvalue-minimisations  : 13461
 total energy-change (2. order) :-0.2107342E+02  (-0.3684007E+01)
 number of electron     964.0001412 magnetization      96.5299803
 augmentation part      527.5538830 magnetization      77.9930477

 DIPCOR: dipole corrections for dipol
 direction  3 min pos   154,
 dipolmoment           0.000000      0.000000     -1.360489 electrons x Angstroem
 Tr[quadrupol]    -33689.932372

 energy correction for charged system         0.000000 eV
 dipol+quadrupol energy correction           -0.053179 eV
 added-field ion interaction        -94.469651 eV  (added to PSCEN)


 Broyden mixing:
  rms(total) = 0.86854E+01    rms(broyden)= 0.86849E+01
  rms(prec ) = 0.10565E+02
  weight for this iteration     100.00

 eigenvalues of (default mixing * dielectric matrix)
  average eigenvalue GAMMA=   0.3481
  1.2766  0.6313  0.3507  0.1369  0.1369  0.0865  0.0865  0.0795

 Free energy of the ion-electron system (eV)
  ---------------------------------------------------
  alpha Z        PSCENC =      1373.17701058
  Ewald energy   TEWEN  =    334479.53563395
  -Hartree energ DENC   =   -426645.03215824
  -exchange      EXHF   =         0.00000000
  -V(xc)+E(xc)   XCENC  =      3095.43330094
  PAW double counting   =    101083.26936467  -106829.80258752
  entropy T*S    EENTRO =        -0.06630442
  eigenvalues    EBANDS =     -3045.47193457
  atomic energy  EATOM  =     95869.45763542
  Solvation  Ediel_sol  =         0.00000000
  ---------------------------------------------------
  free energy    TOTEN  =      -619.50003919 eV

  energy without entropy =     -619.43373477  energy(sigma->0) =     -619.46688698


--------------------------------------------------------------------------------------------------------




--------------------------------------- Iteration      1(  16)  ---------------------------------------


    POTLOK:  cpu time    0.3053: real time    0.3439
    SETDIJ:  cpu time    0.0480: real time    0.0480
    EDDIAG:  cpu time   10.3806: real time   10.3922
[...]
 direction  3 min pos   151,
 dipolmoment           0.000000      0.000000     -1.090643 electrons x Angstroem
 Tr[quadrupol]    -33727.278991

 energy correction for charged system         0.000000 eV
 dipol+quadrupol energy correction           -0.034176 eV
 added-field ion interaction        -58.435092 eV  (added to PSCEN)


 eigenvalues of (default mixing * dielectric matrix)
  average eigenvalue GAMMA=   0.3952
  1.6252  0.7230  0.1402  0.0955  0.0742  0.0555  0.0527

  free energy =  -0.688972430134E+03  energy without entropy=  -0.688902434230E+03


--------------------------------------------------------------------------------------------------------




--------------------------------------- Iteration    137(   9)  ---------------------------------------


    POTLOK:  cpu time    0.1689: real time    0.1694
    SETDIJ:  cpu time    0.0233: real time    0.0233
    EDDIAG:  cpu time    8.8926: real time    8.8947
  RMM-DIIS:  cpu time   14.1866: real time   14.1920
    ORTHCH:  cpu time    2.5876: real time    2.5883
       DOS:  cpu time    0.0014: real time    0.0014
    --------------------------------------------
      LOOP:  cpu time   25.8604: real time   25.8692

 eigenvalue-minimisations  :  8171
 total energy-change (2. order) :-0.1400578E-05  (-0.1865361E-05)
 number of electron     964.0002157 magnetization      56.2322100
 augmentation part      524.7798582 magnetization      52.7300555

 DIPCOR: dipole corrections for dipol
 direction  3 min pos   151,
 dipolmoment           0.000000      0.000000     -1.090787 electrons x Angstroem
 Tr[quadrupol]    -33727.277696

 energy correction for charged system         0.000000 eV
 dipol+quadrupol energy correction           -0.034185 eV
 added-field ion interaction        -58.442834 eV  (added to PSCEN)


  free energy =  -0.688972431534E+03  energy without entropy=  -0.688902449500E+03


--------------------------------------------------------------------------------------------------------




------------------------ aborting loop because EDIFF is reached ----------------------------------------


    CHARGE:  cpu time    1.8545: real time    1.8547
    FORLOC:  cpu time    0.0502: real time    0.0503
    FORNL :  cpu time    7.5188: real time    7.5215
    STRESS:  cpu time   22.4065: real time   22.4146
    FORCOR:  cpu time    0.2016: real time    0.2018
    FORHAR:  cpu time    0.0622: real time    0.0622
    MIXING:  cpu time    0.0058: real time    0.0058
    OFIELD:  cpu time    0.0001: real time    0.0001

  Number of pair interactions contributing to vdW energy:  675064
  Edisp (eV):   -9.55199
    FORVDW:  cpu time    0.0861: real time    0.0862

  FORCE on cell =-STRESS in cart. coord.  units (eV):
  Direction    XX          YY          ZZ          XY          YZ          ZX
  --------------------------------------------------------------------------------------
  Alpha Z  1467.69984  1467.69984  1467.69984
  Ewald  384668.58088383390.51209************   169.86705   -49.77809  -289.83891
  Hartree408653.26811407563.86449************   135.90480   -56.45641  -169.31267
  E(xc)   -5106.60625 -5106.79173 -5120.68007     0.02392     0.06319    -0.50353
  Local  ************************807585.24564  -298.78978   116.58587   436.45550
  n-local  -954.09458  -952.33705 -1006.10305    -4.34652    -0.27697    -4.22667
  augment 14809.19635 14809.23803 14886.98173    -2.53719    -0.65431     2.54190
  Kinetic  8521.82938  8526.54475  8696.34795    -4.23504    -9.20766    24.84616
  Fock        0.00000     0.00000     0.00000     0.00000     0.00000     0.00000
  vdW       -11.44217   -11.38208    -8.91231    -0.06659     0.01838    -0.09528
  -------------------------------------------------------------------------------------
  Total     -45.46088   -39.06133    -3.63048    -4.17934     0.29399    -0.13349
  in kB     -23.00350   -19.76529    -1.83705    -2.11477     0.14876    -0.06755
  external pressure =      -14.87 kB  Pullay stress =        0.00 kB



--------------------------------------------------------------------------------------------------------



  FREE ENERGIE OF THE ION-ELECTRON SYSTEM (eV)
  ---------------------------------------------------
  free  energy   TOTEN  =      -698.52442206 eV

  energy  without entropy=     -698.45444003  energy(sigma->0) =     -698.48943105
 
 d Force = 0.3752369E-04[-0.113E-04, 0.863E-04]  d Energy = 0.1342632E-04 0.241E-04
 d Force =-0.7426967E+00[-0.743E+00,-0.743E+00]  d Ewald  =-0.7426973E+00 0.561E-06


--------------------------------------------------------------------------------------------------------


    POTLOK:  cpu time    0.1946: real time    0.1946


--------------------------------------------------------------------------------------------------------




--------------------------------------------------------------------------------------------------------


    WAVPRE:  cpu time    0.0494: real time    0.0508
    FEWALD:  cpu time    0.0031: real time    0.0031
    ORTHCH:  cpu time    5.0025: real time    5.0038
     LOOP+:  cpu time  343.9530: real time  344.2905


--------------------------------------- Iteration    138(   1)  ---------------------------------------


    POTLOK:  cpu time    0.1702: real time    0.1705
    SETDIJ:  cpu time    0.0232: real time    0.0232
     EDDAV:  cpu time   46.2836: real time   46.2953
       DOS:  cpu time    0.0068: real time    0.0068
    CHARGE:  cpu time    1.8868: real time    1.8878
    MIXING:  cpu time    0.0036: real time    0.0037
    --------------------------------------------
      LOOP:  cpu time   48.3743: real time   48.3874

 eigenvalue-minimisations  : 13920
 total energy-change (2. order) : 0.7477342E-05  (-0.2625920E-02)
 number of electron     964.0002158 magnetization      56.2319386
 augmentation part      524.7799371 magnetization      52.7302475

 DIPCOR: dipole corrections for dipol
 direction  3 min pos   151,
 dipolmoment           0.000000      0.000000     -1.090544 electrons x Angstroem
 Tr[quadrupol]    -33727.701350

 energy correction for charged system         0.000000 eV
 dipol+quadrupol energy correction           -0.034169 eV
 added-field ion interaction        -58.430230 eV  (added to PSCEN)


  free energy =  -0.688972422656E+03  energy without entropy=  -0.688902447382E+03


--------------------------------------------------------------------------------------------------------




--------------------------------------- Iteration    138(   2)  ---------------------------------------


    POTLOK:  cpu time    0.1706: real time    0.1707
    SETDIJ:  cpu time    0.0232: real time    0.0232
    EDDIAG:  cpu time    8.9274: real time    8.9307
  RMM-DIIS:  cpu time   22.5742: real time   22.5813
    ORTHCH:  cpu time    2.5866: real time    2.5871
       DOS:  cpu time    0.0015: real time    0.0015
    CHARGE:  cpu time    1.8868: real time    1.8875
    MIXING:  cpu time    0.0039: real time    0.0039
    --------------------------------------------
      LOOP:  cpu time   36.1743: real time   36.1859

 eigenvalue-minimisations  : 13463
 total energy-change (2. order) :-0.7384723E-03  (-0.9495118E-04)
 number of electron     964.0002158 magnetization      56.2319613
 augmentation part      524.7787787 magnetization      52.7291776

 DIPCOR: dipole corrections for dipol
 direction  3 min pos   151,
 dipolmoment           0.000000      0.000000     -1.092972 electrons x Angstroem
 Tr[quadrupol]    -33727.694209

 energy correction for charged system         0.000000 eV
 dipol+quadrupol energy correction           -0.034322 eV
 added-field ion interaction        -58.560319 eV  (added to PSCEN)


 eigenvalues of (default mixing * dielectric matrix)
  average eigenvalue GAMMA=   0.0625
  0.0625

  free energy =  -0.688973161128E+03  energy without entropy=  -0.688902953304E+03


--------------------------------------------------------------------------------------------------------




--------------------------------------- Iteration    138(   3)  ---------------------------------------


    POTLOK:  cpu time    0.1700: real time    0.1702
    SETDIJ:  cpu time    0.0233: real time    0.0233
    EDDIAG:  cpu time    8.8912: real time    8.8932
  RMM-DIIS:  cpu time   22.7048: real time   22.7103
    ORTHCH:  cpu time    2.5538: real time    2.5544
       DOS:  cpu time    0.0015: real time    0.0015
    CHARGE:  cpu time    1.8905: real time    1.8909
    MIXING:  cpu time    0.0042: real time    0.0042
    --------------------------------------------
      LOOP:  cpu time   36.2393: real time   36.2478

 eigenvalue-minimisations  : 13446
 total energy-change (2. order) : 0.7641846E-03  (-0.2030671E-04)
 number of electron     964.0002158 magnetization      56.2319196
 augmentation part      524.7799933 magnetization      52.7301399

 DIPCOR: dipole corrections for dipol
 direction  3 min pos   152,
 dipolmoment           0.000000      0.000000     -1.090501 electrons x Angstroem
 Tr[quadrupol]    -33727.497018

 energy correction for charged system         0.000000 eV
 dipol+quadrupol energy correction           -0.034167 eV
 added-field ion interaction        -64.116488 eV  (added to PSCEN)


 eigenvalues of (default mixing * dielectric matrix)
  average eigenvalue GAMMA=   0.1090
  0.1605  0.0575

  free energy =  -0.688972396944E+03  energy without entropy=  -0.688902402007E+03


--------------------------------------------------------------------------------------------------------




--------------------------------------- Iteration    138(   4)  ---------------------------------------


    POTLOK:  cpu time    0.1718: real time    0.1720
    SETDIJ:  cpu time    0.0233: real time    0.0233
    EDDIAG:  cpu time    9.8550: real time    9.8570
  RMM-DIIS:  cpu time   19.6964: real time   19.7015
    ORTHCH:  cpu time    4.3088: real time    4.3415
       DOS:  cpu time    0.0014: real time    0.0014
    CHARGE:  cpu time    1.9372: real time    1.9699
    MIXING:  cpu time    0.0104: real time    0.0104
    --------------------------------------------
      LOOP:  cpu time   36.0042: real time   36.0769

 eigenvalue-minimisations  : 11542
 total energy-change (2. order) :-0.1068337E-03  (-0.4695525E-05)
 number of electron     964.0002158 magnetization      56.2318168
 augmentation part      524.7794292 magnetization      52.7296049

 DIPCOR: dipole corrections for dipol
 direction  3 min pos   152,
 dipolmoment           0.000000      0.000000     -1.091151 electrons x Angstroem
 Tr[quadrupol]    -33727.494562

 energy correction for charged system         0.000000 eV
 dipol+quadrupol energy correction           -0.034207 eV
 added-field ion interaction        -64.154721 eV  (added to PSCEN)


 eigenvalues of (default mixing * dielectric matrix)
  average eigenvalue GAMMA=   0.2688
  0.6726  0.0790  0.0548

  free energy =  -0.688972503778E+03  energy without entropy=  -0.688902519301E+03


--------------------------------------------------------------------------------------------------------




--------------------------------------- Iteration    138(   5)  ---------------------------------------


    POTLOK:  cpu time    0.2338: real time    0.2344
    SETDIJ:  cpu time    0.0369: real time    0.0369
    EDDIAG:  cpu time   11.4224: real time   11.4336
  RMM-DIIS:  cpu time   16.2255: real time   16.2316
    ORTHCH:  cpu time    2.5429: real time    2.5436
       DOS:  cpu time    0.0014: real time    0.0014
    CHARGE:  cpu time    1.8880: real time    1.8886
    MIXING:  cpu time    0.0079: real time    0.0079
    --------------------------------------------
      LOOP:  cpu time   32.3588: real time   32.3780

 eigenvalue-minimisations  :  9479
 total energy-change (2. order) :-0.1017030E-04  (-0.2939788E-05)
 number of electron     964.0002158 magnetization      56.2317481
 augmentation part      524.7800907 magnetization      52.7300388

 DIPCOR: dipole corrections for dipol
 direction  3 min pos   152,
 dipolmoment           0.000000      0.000000     -1.090311 electrons x Angstroem
 Tr[quadrupol]    -33727.497227

 energy correction for charged system         0.000000 eV
 dipol+quadrupol energy correction           -0.034155 eV
 added-field ion interaction        -64.105339 eV  (added to PSCEN)


 eigenvalues of (default mixing * dielectric matrix)
  average eigenvalue GAMMA=   0.2687
  0.8488  0.1008  0.0545  0.0705

  free energy =  -0.688972513948E+03  energy without entropy=  -0.688902546773E+03


--------------------------------------------------------------------------------------------------------




--------------------------------------- Iteration    138(   6)  ---------------------------------------


    POTLOK:  cpu time    0.1686: real time    0.1699
    SETDIJ:  cpu time    0.0233: real time    0.0233
    EDDIAG:  cpu time    9.0330: real time    9.0359
  RMM-DIIS:  cpu time   14.1807: real time   14.1858
    ORTHCH:  cpu time    2.5633: real time    2.5636
       DOS:  cpu time    0.0015: real time    0.0015
    CHARGE:  cpu time    1.8921: real time    1.8927
    MIXING:  cpu time    0.0049: real time    0.0049
    --------------------------------------------
      LOOP:  cpu time   27.8674: real time   27.8777

 eigenvalue-minimisations  :  8196
 total energy-change (2. order) : 0.2613585E-04  (-0.1871185E-05)
 number of electron     964.0002158 magnetization      56.2317177
 augmentation part      524.7796581 magnetization      52.7295606

 DIPCOR: dipole corrections for dipol
 direction  3 min pos   152,
 dipolmoment           0.000000      0.000000     -1.091027 electrons x Angstroem
 Tr[quadrupol]    -33727.494930

 energy correction for charged system         0.000000 eV
 dipol+quadrupol energy correction           -0.034200 eV
 added-field ion interaction        -64.147442 eV  (added to PSCEN)


 eigenvalues of (default mixing * dielectric matrix)
  average eigenvalue GAMMA=   0.2568
  0.9080  0.1688  0.0863  0.0542  0.0665

  free energy =  -0.688972487812E+03  energy without entropy=  -0.688902496810E+03


--------------------------------------------------------------------------------------------------------




--------------------------------------- Iteration    138(   7)  ---------------------------------------


    POTLOK:  cpu time    0.1723: real time    0.1725
    SETDIJ:  cpu time    0.0234: real time    0.0234
    EDDIAG:  cpu time    9.0293: real time    9.0315
  RMM-DIIS:  cpu time   13.8856: real time   13.8897
    ORTHCH:  cpu time    2.5572: real time    2.5577
       DOS:  cpu time    0.0015: real time    0.0014
    --------------------------------------------
      LOOP:  cpu time   25.6692: real time   25.6763

 eigenvalue-minimisations  :  8028
 total energy-change (2. order) :-0.3237088E-05  (-0.8315962E-06)
 number of electron     964.0002158 magnetization      56.2317177
 augmentation part      524.7796581 magnetization      52.7295606

 DIPCOR: dipole corrections for dipol
 direction  3 min pos   152,
 dipolmoment           0.000000      0.000000     -1.090483 electrons x Angstroem
 Tr[quadrupol]    -33727.496821

 energy correction for charged system         0.000000 eV
 dipol+quadrupol energy correction           -0.034166 eV
 added-field ion interaction        -64.115459 eV  (added to PSCEN)


  free energy =  -0.688972491049E+03  energy without entropy=  -0.688902495612E+03


--------------------------------------------------------------------------------------------------------




------------------------ aborting loop because EDIFF is reached ----------------------------------------


    CHARGE:  cpu time    1.8905: real time    1.8909
    FORLOC:  cpu time    0.0502: real time    0.0502
    FORNL :  cpu time    7.5853: real time    7.5870
    STRESS:  cpu time   22.4165: real time   22.4212
    FORCOR:  cpu time    0.1731: real time    0.1731
    FORHAR:  cpu time    0.0623: real time    0.0623
    MIXING:  cpu time    0.0052: real time    0.0053
    OFIELD:  cpu time    0.0001: real time    0.0001

  Number of pair interactions contributing to vdW energy:  675066
  Edisp (eV):   -9.55205
    FORVDW:  cpu time    0.0861: real time    0.0861

  FORCE on cell =-STRESS in cart. coord.  units (eV):
  Direction    XX          YY          ZZ          XY          YZ          ZX
  --------------------------------------------------------------------------------------
  Alpha Z  1467.69984  1467.69984  1467.69984
  Ewald  384669.48263383391.63427************   169.47225   -49.47102  -290.03823
  Hartree408650.93733407562.14184************   135.52657   -56.10930  -169.45802
  E(xc)   -5106.60550 -5106.79226 -5120.68144     0.02447     0.06365    -0.50384
  Local  ************************807583.06029  -298.00626   115.94703   436.78134
  n-local  -954.08823  -952.32272 -1006.07583    -4.34833    -0.27559    -4.23004
  augment 14809.19346 14809.25108 14887.00367    -2.53907    -0.65330     2.54816
  Kinetic  8521.80240  8526.55477  8696.34802    -4.24425    -9.23487    24.85646
  Fock        0.00000     0.00000     0.00000     0.00000     0.00000     0.00000
  vdW       -11.44226   -11.38177    -8.91229    -0.06675     0.01839    -0.09515
  -------------------------------------------------------------------------------------
  Total     -45.40329   -39.02344    -3.64398    -4.18137     0.28499    -0.13934
  in kB     -22.97436   -19.74612    -1.84388    -2.11580     0.14420    -0.07051
  external pressure =      -14.85 kB  Pullay stress =        0.00 kB



--------------------------------------------------------------------------------------------------------



  FREE ENERGIE OF THE ION-ELECTRON SYSTEM (eV)
  ---------------------------------------------------
  free  energy   TOTEN  =      -698.52454126 eV

  energy  without entropy=     -698.45454582  energy(sigma->0) =     -698.48954354
 
 d Force = 0.1354508E-03[ 0.941E-04, 0.177E-03]  d Energy = 0.1191945E-03 0.163E-04
 d Force =-0.1304142E+01[-0.130E+01,-0.130E+01]  d Ewald  =-0.1304141E+01-0.279E-06


--------------------------------------------------------------------------------------------------------


    POTLOK:  cpu time    0.1960: real time    0.1960


--------------------------------------------------------------------------------------------------------


 Conjugate gradient step on ions:
 trial-energy change:   -0.000119  1 .order   -0.000135   -0.000177   -0.000094
  (g-gl).g = 0.129E-03      g.g   = 0.153E-03  gl.gl    = 0.277E-03
 g(Force)  = 0.153E-03   g(Stress)= 0.000E+00 ortho     =-0.135E-04
 gamma     =   0.46427
 trial     =   1.20877
 opt step  =   2.58254  (harmonic =   2.58254) maximal distance =0.00263207
 next E    =  -698.524611   (d E  =  -0.00019)


--------------------------------------------------------------------------------------------------------


  
 reached required accuracy - stopping structural energy minimisation
     LOOP+:  cpu time  275.2091: real time  275.3598
    4ORBIT:  cpu time    0.0000: real time    0.0000

 total amount of memory used by VASP MPI-rank0   279832. kBytes
=======================================================================

   base      :      30000. kBytes
   nonlr-proj:      29425. kBytes
   fftplans  :       5452. kBytes
   grid      :      53059. kBytes
   one-center:       3950. kBytes
   wavefun   :     157946. kBytes
 
  
  
 General timing and accounting informations for this job:
 ========================================================
  
                  Total CPU time used (sec):    61473.020
                            User time (sec):    61292.701
                          System time (sec):      180.320
                         Elapsed time (sec):    61583.850
  
                   Maximum memory used (kb):      607400.
                   Average memory used (kb):           0.
  
                          Minor page faults:     16080855
                          Major page faults:            0
                 Voluntary context switches:        21733
