 vasp.5.4.4.18Apr17-6-g9f103f2a35 (build Jun 30 2017 19:19:18) complex          
  
 executed on         MareNostrum4 date 2022.06.16  10:17:51
 running on   48 total cores
 distrk:  each k-point on   48 cores,    1 groups
 distr:  one band on NCORES_PER_BAND=   1 cores,   48 groups


--------------------------------------------------------------------------------------------------------


 INCAR:
 POTCAR:    PAW_PBE H 15Jun2001                   
 POTCAR:    PAW_PBE C 08Apr2002                   
 POTCAR:    PAW_PBE O 08Apr2002                   

 ----------------------------------------------------------------------------- 
|                                                                             |
|           W    W    AA    RRRRR   N    N  II  N    N   GGGG   !!!           |
|           W    W   A  A   R    R  NN   N  II  NN   N  G    G  !!!           |
|           W    W  A    A  R    R  N N  N  II  N N  N  G       !!!           |
|           W WW W  AAAAAA  RRRRR   N  N N  II  N  N N  G  GGG   !            |
|           WW  WW  A    A  R   R   N   NN  II  N   NN  G    G                |
|           W    W  A    A  R    R  N    N  II  N    N   GGGG   !!!           |
|                                                                             |
|      For optimal performance we recommend to set                            |
|        NCORE= 4 - approx SQRT( number of cores)                             |
|      NCORE specifies how many cores store one orbital (NPAR=cpu/NCORE).     |
|      This setting can  greatly improve the performance of VASP for DFT.     |
|      The default,   NCORE=1            might be grossly inefficient         |
|      on modern multi-core architectures or massively parallel machines.     |
|      Do your own testing !!!!                                               |
|      Unfortunately you need to use the default for GW and RPA calculations. |
|      (for HF NCORE is supported but not extensively tested yet)             |
|                                                                             |
 ----------------------------------------------------------------------------- 

 POTCAR:    PAW_PBE H 15Jun2001                   
  local pseudopotential read in
  atomic valenz-charges read in
  non local Contribution for L=           0  read in
    real space projection operators read in
  non local Contribution for L=           0  read in
    real space projection operators read in
  non local Contribution for L=           1  read in
    real space projection operators read in
    PAW grid and wavefunctions read in
 
   number of l-projection  operators is LMAX  =           3
   number of lm-projection operators is LMMAX =           5
 
 POTCAR:    PAW_PBE C 08Apr2002                   
  local pseudopotential read in
  partial core-charges read in
  partial kinetic energy density read in
  atomic valenz-charges read in
  non local Contribution for L=           0  read in
    real space projection operators read in
  non local Contribution for L=           0  read in
    real space projection operators read in
  non local Contribution for L=           1  read in
    real space projection operators read in
  non local Contribution for L=           1  read in
    real space projection operators read in
    PAW grid and wavefunctions read in
 
   number of l-projection  operators is LMAX  =           4
   number of lm-projection operators is LMMAX =           8
 
 POTCAR:    PAW_PBE O 08Apr2002                   
  local pseudopotential read in
  partial core-charges read in
  partial kinetic energy density read in
  kinetic energy density of atom read in
  atomic valenz-charges read in
  non local Contribution for L=           0  read in
    real space projection operators read in
  non local Contribution for L=           0  read in
    real space projection operators read in
  non local Contribution for L=           1  read in
    real space projection operators read in
  non local Contribution for L=           1  read in
    real space projection operators read in
    PAW grid and wavefunctions read in
 
   number of l-projection  operators is LMAX  =           4
   number of lm-projection operators is LMMAX =           8
 
 Optimization of the real space projectors (new method)

 maximal supplied QI-value         = 34.20
 optimisation between [QCUT,QGAM] = [ 10.60, 21.55] = [ 31.48,130.03] Ry 
 Optimized for a Real-space Cutoff    1.23 Angstroem

   l    n(q)    QCUT    max X(q) W(low)/X(q) W(high)/X(q)  e(spline) 
   0      8    10.603    19.460    0.37E-03    0.59E-03    0.23E-06
   0      8    10.603    12.209    0.35E-03    0.56E-03    0.22E-06
   1      7    10.603     4.655    0.70E-04    0.28E-03    0.29E-06
 Optimization of the real space projectors (new method)

 maximal supplied QI-value         = 25.13
 optimisation between [QCUT,QGAM] = [ 10.81, 21.61] = [ 32.71,130.83] Ry 
 Optimized for a Real-space Cutoff    1.23 Angstroem

   l    n(q)    QCUT    max X(q) W(low)/X(q) W(high)/X(q)  e(spline) 
   0      8    10.807   115.676    0.36E-03    0.72E-03    0.24E-06
   0      8    10.807    87.132    0.35E-03    0.71E-03    0.24E-06
   1      7    10.807     4.429    0.19E-03    0.39E-03    0.11E-06
   1      7    10.807     2.733    0.14E-03    0.28E-03    0.13E-06
 Optimization of the real space projectors (new method)

 maximal supplied QI-value         = 24.76
 optimisation between [QCUT,QGAM] = [ 10.64, 21.54] = [ 31.73,129.89] Ry 
 Optimized for a Real-space Cutoff    1.23 Angstroem

   l    n(q)    QCUT    max X(q) W(low)/X(q) W(high)/X(q)  e(spline) 
   0      8    10.645    20.381    0.38E-03    0.60E-03    0.15E-06
   0      8    10.645    15.268    0.40E-03    0.65E-03    0.17E-06
   1      7    10.645     5.964    0.30E-03    0.63E-03    0.18E-06
   1      7    10.645     5.382    0.24E-03    0.53E-03    0.16E-06
  PAW_PBE H 15Jun2001                   :
 energy of atom  1       EATOM=  -12.4884
 kinetic energy error for atom=    0.0045 (will be added to EATOM!!)
  PAW_PBE C 08Apr2002                   :
 energy of atom  2       EATOM= -147.1560
 kinetic energy error for atom=    0.0116 (will be added to EATOM!!)
  PAW_PBE O 08Apr2002                   :
 energy of atom  3       EATOM= -432.3788
 kinetic energy error for atom=    0.0389 (will be added to EATOM!!)
 
 
 POSCAR: H  C  O                                 
  positions in cartesian coordinates
  No initial velocities read in
 exchange correlation table for  LEXCH =        8
   RHO(1)=    0.500       N(1)  =     2000
   RHO(2)=  100.500       N(2)  =     4000
 


--------------------------------------------------------------------------------------------------------


 ion  position               nearest neighbor table
   1  0.238  0.749  0.894-  23 1.09
   2  0.202  0.797  0.844-  23 1.09
   3  0.273  0.817  0.870-  23 1.09
   4  0.495  0.580  0.528-  32 1.10
   5  0.458  0.513  0.550-  32 1.10
   6  0.545  0.486  0.613-  33 1.10
   7  0.581  0.553  0.591-  33 1.10
   8  0.273  0.717  0.706-  26 1.09
   9  0.313  0.665  0.618-  30 1.09
  10  0.425  0.662  0.809-  27 1.09
  11  0.466  0.610  0.721-  28 1.09
  12  0.571  0.456  0.420-  36 1.09
  13  0.726  0.400  0.520-  37 1.09
  14  0.764  0.349  0.431-  38 1.09
  15  0.610  0.405  0.332-  40 1.09
  16  0.791  0.318  0.240-  42 1.10
  17  0.756  0.251  0.264-  42 1.10
  18  0.844  0.229  0.329-  43 1.10
  19  0.878  0.295  0.305-  43 1.10
  20  0.844  0.189  0.225-  44 1.09
  21  0.917  0.208  0.250-  44 1.09
  22  0.879  0.256  0.200-  44 1.09
  23  0.245  0.780  0.857-   2 1.09   3 1.09   1 1.09  45 1.43
  24  0.324  0.724  0.818-  48 1.22  45 1.36  25 1.49
  25  0.346  0.693  0.764-  26 1.40  27 1.40  24 1.49
  26  0.315  0.694  0.710-   8 1.09  30 1.40  25 1.40
  27  0.401  0.663  0.767-  10 1.09  25 1.40  28 1.40
  28  0.424  0.633  0.717-  11 1.09  29 1.40  27 1.40
  29  0.393  0.634  0.663-  28 1.40  30 1.40  31 1.49
  30  0.338  0.664  0.660-   9 1.09  26 1.40  29 1.40
  31  0.415  0.604  0.608-  49 1.22  46 1.36  29 1.49
  32  0.490  0.547  0.564-   5 1.10   4 1.10  46 1.44  33 1.53
  33  0.550  0.518  0.577-   7 1.10   6 1.10  47 1.44  32 1.53
  34  0.625  0.462  0.532-  50 1.22  47 1.36  35 1.49
  35  0.646  0.432  0.477-  36 1.40  37 1.40  34 1.49
  36  0.613  0.433  0.423-  12 1.09  35 1.40  40 1.40
  37  0.700  0.401  0.479-  13 1.09  38 1.40  35 1.40
  38  0.722  0.372  0.428-  14 1.09  39 1.40  37 1.40
  39  0.690  0.373  0.375-  38 1.40  40 1.40  41 1.49
  40  0.636  0.404  0.373-  15 1.09  36 1.40  39 1.40
  41  0.711  0.343  0.320-  51 1.22  52 1.36  39 1.49
  42  0.787  0.286  0.277-  17 1.10  16 1.10  52 1.44  43 1.53
  43  0.847  0.259  0.291-  18 1.10  19 1.10  44 1.52  42 1.53
  44  0.873  0.226  0.238-  21 1.09  22 1.09  20 1.09  43 1.52
  45  0.270  0.749  0.807-  24 1.36  23 1.43
  46  0.468  0.577  0.617-  31 1.36  32 1.44
  47  0.571  0.489  0.524-  34 1.36  33 1.44
  48  0.350  0.724  0.865-  24 1.22
  49  0.387  0.604  0.562-  31 1.22
  50  0.653  0.461  0.578-  34 1.22
  51  0.683  0.343  0.274-  41 1.22
  52  0.765  0.316  0.328-  41 1.36  42 1.44
 
  LATTYP: Found a simple cubic cell.
 ALAT       =    22.5000000000
  
  Lattice vectors:
  
 A1 = (  22.5000000000,   0.0000000000,   0.0000000000)
 A2 = (   0.0000000000,  22.5000000000,   0.0000000000)
 A3 = (   0.0000000000,   0.0000000000,  22.5000000000)


Analysis of symmetry for initial positions (statically):
=====================================================================
 Subroutine PRICEL returns:
 Original cell was already a primitive cell.
 

 Routine SETGRP: Setting up the symmetry group for a 
 simple cubic supercell.


 Subroutine GETGRP returns: Found  1 space group operations
 (whereof  1 operations were pure point group operations)
 out of a pool of 48 trial point group operations.


The static configuration has the point symmetry C_1 .


Analysis of symmetry for dynamics (positions and initial velocities):
=====================================================================
 Subroutine PRICEL returns:
 Original cell was already a primitive cell.
 

 Routine SETGRP: Setting up the symmetry group for a 
 simple cubic supercell.


 Subroutine GETGRP returns: Found  1 space group operations
 (whereof  1 operations were pure point group operations)
 out of a pool of 48 trial point group operations.


The dynamic configuration has the point symmetry C_1 .


Analysis of constrained symmetry for selective dynamics:
=====================================================================
 Subroutine PRICEL returns:
 Original cell was already a primitive cell.
 

 Routine SETGRP: Setting up the symmetry group for a 
 simple cubic supercell.


 Subroutine GETGRP returns: Found  1 space group operations
 (whereof  1 operations were pure point group operations)
 out of a pool of 48 trial point group operations.


The constrained configuration has the point symmetry C_1 .


 Subroutine INISYM returns: Found  1 space group operations
 (whereof  1 operations are pure point group operations),
 and found     1 'primitive' translations

 
 
 KPOINTS: K-POINTS                                

Automatic generation of k-mesh.
Space group operators:
 irot       det(A)        alpha          n_x          n_y          n_z        tau_x        tau_y        tau_z
    1     1.000000     0.000000     1.000000     0.000000     0.000000     0.000000     0.000000     0.000000
 
 Subroutine IBZKPT returns following result:
 ===========================================
 
 Found      1 irreducible k-points:
 
 Following reciprocal coordinates:
            Coordinates               Weight
  0.000000  0.000000  0.000000      1.000000
 
 Following cartesian coordinates:
            Coordinates               Weight
  0.000000  0.000000  0.000000      1.000000
 


--------------------------------------------------------------------------------------------------------




 Dimension of arrays:
   k-points           NKPTS =      1   k-points in BZ     NKDIM =      1   number of bands    NBANDS=    144
   number of dos      NEDOS =    301   number of ions     NIONS =     52
   non local maximal  LDIM  =      4   non local SUM 2l+1 LMDIM =      8
   total plane-waves  NPLWV = ******
   max r-space proj   IRMAX =   1223   max aug-charges    IRDMAX=   2167
   dimension x,y,z NGX =   120 NGY =  120 NGZ =  120
   dimension x,y,z NGXF=   240 NGYF=  240 NGZF=  240
   support grid    NGXF=   240 NGYF=  240 NGZF=  240
   ions per type =              22  22   8
   NGX,Y,Z   is equivalent  to a cutoff of   8.87,  8.87,  8.87 a.u.
   NGXF,Y,Z  is equivalent  to a cutoff of  17.73, 17.73, 17.73 a.u.

 SYSTEM =  x                                       
 POSCAR =  H  C  O                                 

 Startparameter for this run:
   NWRITE =      0    write-flag & timer
   PREC   = normal    normal or accurate (medium, high low for compatibility)
   ISTART =      0    job   : 0-new  1-cont  2-samecut
   ICHARG =      2    charge: 1-file 2-atom 10-const
   ISPIN  =      1    spin polarized calculation?
   LNONCOLLINEAR =      F non collinear calculations
   LSORBIT =      F    spin-orbit coupling
   INIWAV =      1    electr: 0-lowe 1-rand  2-diag
   LASPH  =      F    aspherical Exc in radial PAW
   METAGGA=      F    non-selfconsistent MetaGGA calc.

 Electronic Relaxation 1
   ENCUT  =  450.0 eV  33.07 Ry    5.75 a.u.  38.92 38.92 38.92*2*pi/ulx,y,z
   ENINI  =  450.0     initial cutoff
   ENAUG  =  644.9 eV  augmentation charge cutoff
   NELM   =    100;   NELMIN=  5; NELMDL= -7     # of ELM steps 
   EDIFF  = 0.1E-05   stopping-criterion for ELM
   LREAL  =      T    real-space projection
   NLSPLINE    = F    spline interpolate recip. space projectors
   LCOMPAT=      F    compatible to vasp.4.4
   GGA_COMPAT  = T    GGA compatible to vasp.4.4-vasp.4.6
   LMAXPAW     = -100 max onsite density
   LMAXMIX     =    2 max onsite mixed and CHGCAR
   VOSKOWN=      0    Vosko Wilk Nusair interpolation
   ROPT   =   -0.00050  -0.00050  -0.00050
 Ionic relaxation
   EDIFFG = -.2E-01   stopping-criterion for IOM
   NSW    =    300    number of steps for IOM
   NBLOCK =      1;   KBLOCK =    300    inner block; outer block 
   IBRION =      2    ionic relax: 0-MD 1-quasi-New 2-CG
   NFREE  =      2    steps in history (QN), initial steepest desc. (CG)
   ISIF   =      2    stress and relaxation
   IWAVPR =     11    prediction:  0-non 1-charg 2-wave 3-comb
   ISYM   =      2    0-nonsym 1-usesym 2-fastsym
   LCORR  =      T    Harris-Foulkes like correction to forces

   POTIM  = 0.1500    time-step for ionic-motion
   TEIN   =    0.0    initial temperature
   TEBEG  =    0.0;   TEEND  =   0.0 temperature during run
   SMASS  =  -3.00    Nose mass-parameter (am)
   estimated Nose-frequenzy (Omega)   =  0.10E-29 period in steps =****** mass=  -0.116E-25a.u.
   SCALEE = 1.0000    scale energy and forces
   NPACO  =    256;   APACO  = 16.0  distance and # of slots for P.C.
   PSTRESS=    0.0 pullay stress

  Mass of Ions in am
   POMASS =   1.00 12.01 16.00
  Ionic Valenz
   ZVAL   =   1.00  4.00  6.00
  Atomic Wigner-Seitz radii
   RWIGS  =  -1.00 -1.00 -1.00
  virtual crystal weights 
   VCA    =   1.00  1.00  1.00
   NELECT =     158.0000    total number of electrons
   NUPDOWN=      -1.0000    fix difference up-down

 DOS related values:
   EMIN   =  10.00;   EMAX   =-10.00  energy-range for DOS
   EFERMI =   0.00
   ISMEAR =     0;   SIGMA  =   0.03  broadening in eV -4-tet -1-fermi 0-gaus

 Electronic relaxation 2 (details)
   IALGO  =     38    algorithm
   LDIAG  =      T    sub-space diagonalisation (order eigenvalues)
   LSUBROT=      F    optimize rotation matrix (better conditioning)
   TURBO    =      0    0=normal 1=particle mesh
   IRESTART =      0    0=no restart 2=restart with 2 vectors
   NREBOOT  =      0    no. of reboots
   NMIN     =      0    reboot dimension
   EREF     =   0.00    reference energy to select bands
   IMIX   =      4    mixing-type and parameters
     AMIX     =   0.40;   BMIX     =  1.00
     AMIX_MAG =   1.60;   BMIX_MAG =  1.00
     AMIN     =   0.10
     WC   =   100.;   INIMIX=   1;  MIXPRE=   1;  MAXMIX= -45

 Intra band minimization:
   WEIMIN = 0.0010     energy-eigenvalue tresh-hold
   EBREAK =  0.17E-08  absolut break condition
   DEPER  =   0.30     relativ break condition  

   TIME   =   0.40     timestep for ELM

  volume/ion in A,a.u.               =     219.05      1478.23
  Fermi-wavevector in a.u.,A,eV,Ry     =   0.393349  0.743322  2.105140  0.154723
  Thomas-Fermi vector in A             =   1.337343
 
 Write flags
   LWAVE        =      F    write WAVECAR
   LDOWNSAMPLE  =      F    k-point downsampling of WAVECAR
   LCHARG       =      F    write CHGCAR
   LVTOT        =      F    write LOCPOT, total local potential
   LVHAR        =      F    write LOCPOT, Hartree potential only
   LELF         =      F    write electronic localiz. function (ELF)
   LORBIT       =      0    0 simple, 1 ext, 2 COOP (PROOUT), +10 PAW based schemes


 Dipole corrections
   LMONO  =      F    monopole corrections only (constant potential shift)
   LDIPOL =      T    correct potential (dipole corrections)
   IDIPOL =      4    1-x, 2-y, 3-z, 4-all directions 
   EPSILON=  1.0000000 bulk dielectric constant

 Exchange correlation treatment:
   GGA     =    PE    GGA type
   LEXCH   =     8    internal setting for exchange type
   VOSKOWN=      0    Vosko Wilk Nusair interpolation
   LHFCALC =     F    Hartree Fock is set to
   LHFONE  =     F    Hartree Fock one center treatment
   AEXX    =    0.0000 exact exchange contribution

 Linear response parameters
   LEPSILON=     F    determine dielectric tensor
   LRPA    =     F    only Hartree local field effects (RPA)
   LNABLA  =     F    use nabla operator in PAW spheres
   LVEL    =     F    velocity operator in full k-point grid
   LINTERFAST=   F  fast interpolation
   KINTER  =     0    interpolate to denser k-point grid
   CSHIFT  =0.1000    complex shift for real part using Kramers Kronig
   OMEGAMAX=  -1.0    maximum frequency
   DEG_THRESHOLD= 0.2000000E-02 threshold for treating states as degnerate
   RTIME   =   -0.100 relaxation time in fs
  (WPLASMAI=    0.000 imaginary part of plasma frequency in eV, 0.658/RTIME)
   DFIELD  = 0.0000000 0.0000000 0.0000000 field for delta impulse in time
 
 Orbital magnetization related:
   ORBITALMAG=     F  switch on orbital magnetization
   LCHIMAG   =     F  perturbation theory with respect to B field
   DQ        =  0.001000  dq finite difference perturbation B field
   LLRAUG    =     F  two centre corrections for induced B field



--------------------------------------------------------------------------------------------------------


 conjugate gradient relaxation of ions
   using selective dynamics as specified on POSCAR
   WARNING: If single coordinates had been selected the selection of coordinates
            is made according to the corresponding   d i r e c t   coordinates!
            Don't support selection of single cartesian coordinates -- sorry ...
  !
 charge density and potential will be updated during run
 non-spin polarized calculation
 Variant of blocked Davidson
 Davidson routine will perform the subspace rotation
 perform sub-space diagonalisation
    after iterative eigenvector-optimisation
 modified Broyden-mixing scheme, WC =      100.0
 initial mixing is a Kerker type mixing with AMIX =  0.4000 and BMIX =      1.0000
 Hartree-type preconditioning will be used
 using additional bands           65
 real space projection scheme for non local part
 use partial core corrections
 calculate Harris-corrections to forces 
   (improved forces if not selfconsistent)
 use gradient corrections 
 use of overlap-Matrix (Vanderbilt PP)
 Gauss-broadening in eV      SIGMA  =   0.03


--------------------------------------------------------------------------------------------------------


  energy-cutoff  :      450.00
  volume of cell :    11390.62
      direct lattice vectors                 reciprocal lattice vectors
    22.500000000  0.000000000  0.000000000     0.044444444  0.000000000  0.000000000
     0.000000000 22.500000000  0.000000000     0.000000000  0.044444444  0.000000000
     0.000000000  0.000000000 22.500000000     0.000000000  0.000000000  0.044444444

  length of vectors
    22.500000000 22.500000000 22.500000000     0.044444444  0.044444444  0.044444444


 
 k-points in units of 2pi/SCALE and weight: K-POINTS                                
   0.00000000  0.00000000  0.00000000       1.000
 
 k-points in reciprocal lattice and weights: K-POINTS                                
   0.00000000  0.00000000  0.00000000       1.000
 
 position of ions in fractional coordinates (direct lattice) 
   0.23845386  0.74898058  0.89406333
   0.20167950  0.79710554  0.84355439
   0.27328286  0.81699042  0.87004832
   0.49458282  0.57951468  0.52784531
   0.45795537  0.51312008  0.54996253
   0.54484321  0.48625514  0.61317950
   0.58147194  0.55267424  0.59105284
   0.27294568  0.71673082  0.70562595
   0.31346961  0.66549391  0.61843995
   0.42548715  0.66193656  0.80853107
   0.46627588  0.61041526  0.72093378
   0.57121609  0.45616677  0.42032979
   0.72559286  0.39988527  0.51972343
   0.76434350  0.34879079  0.43133386
   0.61006932  0.40497338  0.33187892
   0.79089194  0.31768387  0.23981616
   0.75564906  0.25060027  0.26416360
   0.84350324  0.22933237  0.32914866
   0.87789332  0.29482397  0.30487829
   0.84444894  0.18945554  0.22481325
   0.91691185  0.20781606  0.24950917
   0.87896424  0.25586296  0.20001363
   0.24505053  0.77963799  0.85687491
   0.32355420  0.72352877  0.81789906
   0.34632447  0.69305912  0.76364212
   0.31524981  0.69369112  0.70974043
   0.40078701  0.66280877  0.76688177
   0.42398761  0.63347517  0.71693308
   0.39283400  0.63413341  0.66306330
   0.33838701  0.66444670  0.65994108
   0.41450465  0.60399741  0.60814196
   0.48968788  0.54731770  0.56413135
   0.54970129  0.51849942  0.57694150
   0.62471059  0.46179698  0.53213616
   0.64557765  0.43182436  0.47675850
   0.61347454  0.43291748  0.42348244
   0.69996897  0.40124010  0.47865723
   0.72209890  0.37209195  0.42821843
   0.68998604  0.37314738  0.37497233
   0.63561346  0.40373976  0.37300949
   0.71099888  0.34285203  0.31988660
   0.78671755  0.28601711  0.27662588
   0.84738189  0.25944021  0.29102957
   0.87333036  0.22625375  0.23821539
   0.27019106  0.74936502  0.80700693
   0.46778138  0.57678376  0.61650913
   0.57137733  0.48909640  0.52441468
   0.35021831  0.72437633  0.86520833
   0.38658814  0.60449779  0.56155746
   0.65313090  0.46109590  0.57839561
   0.68261797  0.34271579  0.27360797
   0.76454834  0.31625021  0.32832916
 
 position of ions in cartesian coordinates  (Angst):
   5.36521181 16.85206311 20.11642502
   4.53778865 17.93487461 18.97997377
   6.14886437 18.38228450 19.57608712
  11.12811353 13.03908027 11.87651938
  10.30399589 11.54520180 12.37415682
  12.25897223 10.94074073 13.79653873
  13.08311867 12.43517044 13.29868890
   6.14127785 16.12644338 15.87658393
   7.05306625 14.97361298 13.91489890
   9.57346091 14.89357256 18.19194904
  10.49120733 13.73434346 16.22101002
  12.85236205 10.26375238  9.45742019
  16.32583935  8.99741850 11.69377718
  17.19772885  7.84779281  9.70501186
  13.72655967  9.11190115  7.46727567
  17.79506874  7.14788697  5.39586360
  17.00210378  5.63850605  5.94368107
  18.97882299  5.15997831  7.40584477
  19.75259960  6.63353936  6.85976147
  19.00010124  4.26274964  5.05829803
  20.63051672  4.67586139  5.61395622
  19.77669541  5.75691664  4.50030676
   5.51363689 17.54185489 19.27968548
   7.27996960 16.27939738 18.40272880
   7.79230049 15.59383010 17.18194771
   7.09312062 15.60805013 15.96915963
   9.01770773 14.91319733 17.25483975
   9.53972121 14.25319134 16.13099423
   8.83876498 14.26800167 14.91892433
   7.61370769 14.95005078 14.84867433
   9.32635466 13.58994165 13.68319403
  11.01797739 12.31464833 12.69295543
  12.36827910 11.66623696 12.98118369
  14.05598820 10.39043209 11.97306364
  14.52549711  9.71604803 10.72706620
  13.80317713  9.74064340  9.52835481
  15.74930179  9.02790230 10.76978776
  16.24722515  8.37206897  9.63491470
  15.52468588  8.39581603  8.43687739
  14.30130295  9.08414465  8.39271348
  15.99747485  7.71417078  7.19744842
  17.70114497  6.43538494  6.22408219
  19.06609256  5.83740478  6.54816540
  19.64993308  5.09070927  5.35984618
   6.07929889 16.86071290 18.15765596
  10.52508105 12.97763470 13.87145549
  12.85598992 11.00466897 11.79933028
   7.87991187 16.29846733 19.46718750
   8.69823307 13.60120020 12.63504291
  14.69544534 10.37465777 13.01390130
  15.35890434  7.71110521  6.15617933
  17.20233755  7.11562976  7.38740616
 


--------------------------------------------------------------------------------------------------------


 k-point  1 :   0.0000 0.0000 0.0000  plane waves:  246825

 maximum and minimum number of plane-waves per node :    246825   246825

 maximum number of plane-waves:    246825
 maximum index in each direction: 
   IXMAX=   38   IYMAX=   38   IZMAX=   38
   IXMIN=  -38   IYMIN=  -38   IZMIN=  -38


 serial   3D FFT for wavefunctions
 parallel 3D FFT for charge:
    minimum data exchange during FFTs selected (reduces bandwidth)


 total amount of memory used by VASP MPI-rank0   151342. kBytes
=======================================================================

   base      :      30000. kBytes
   nonlr-proj:       4567. kBytes
   fftplans  :      16852. kBytes
   grid      :      87897. kBytes
   one-center:        159. kBytes
   wavefun   :      11867. kBytes
 
     INWAV:  cpu time    0.0000: real time    0.0003
 Broyden mixing: mesh for mixing (old mesh)
   NGX = 77   NGY = 77   NGZ = 77
  (NGX  =240   NGY  =240   NGZ  =240)
  gives a total of 456533 points

 initial charge density was supplied:
 charge density of overlapping atoms calculated
 number of electron     158.0000000 magnetization 
 keeping initial charge density in first step


--------------------------------------------------------------------------------------------------------


 Maximum index for non-local projection operator         1158
 Maximum index for augmentation-charges          177 (set IRDMAX)


--------------------------------------------------------------------------------------------------------


 First call to EWALD:  gamma=   0.079
 Maximum number of real-space cells 3x 3x 3
 Maximum number of reciprocal cells 3x 3x 3

    FEWALD:  cpu time    0.0022: real time    0.0022


--------------------------------------- Iteration      1(   1)  ---------------------------------------


    POTLOK:  cpu time    0.2965: real time    0.3080
    SETDIJ:  cpu time    0.0031: real time    0.0050
     EDDAV:  cpu time    2.8293: real time    2.8694
       DOS:  cpu time    0.0008: real time    0.0020
    --------------------------------------------
      LOOP:  cpu time    3.1297: real time    3.1845

 eigenvalue-minimisations  :   384
 total energy-change (2. order) : 0.1036831E+04  (-0.4087952E+04)
 number of electron     158.0000000 magnetization 
 augmentation part      158.0000000 magnetization 

 DIPCOR: dipole corrections for dipol
 direction  1 min pos    13, direction  2 min pos     8, direction  3 min pos    10,
 dipolmoment          -0.004861      0.001831     -0.002649 electrons x Angstroem
 Tr[quadrupol]       115.174148

 energy correction for charged system         0.000000 eV
 dipol+quadrupol energy correction           -0.000000 eV
 added-field ion interaction          0.000591 eV  (added to PSCEN)


 Free energy of the ion-electron system (eV)
  ---------------------------------------------------
  alpha Z        PSCENC =         9.58098566
  Ewald energy   TEWEN  =     14565.47622915
  -Hartree energ DENC   =    -19696.55365300
  -exchange      EXHF   =         0.00000000
  -V(xc)+E(xc)   XCENC  =       560.43476380
  PAW double counting   =      5206.82943908    -5233.94104345
  entropy T*S    EENTRO =        -0.03705295
  eigenvalues    EBANDS =     -1345.49928074
  atomic energy  EATOM  =      6970.54093622
  Solvation  Ediel_sol  =         0.00000000
  ---------------------------------------------------
  free energy    TOTEN  =      1036.83132377 eV

  energy without entropy =     1036.86837672  energy(sigma->0) =     1036.84985024


--------------------------------------------------------------------------------------------------------




--------------------------------------- Iteration      1(   2)  ---------------------------------------


     EDDAV:  cpu time    3.6317: real time    3.6329
       DOS:  cpu time    0.0002: real time    0.0002
    --------------------------------------------
      LOOP:  cpu time    3.6319: real time    3.6331

 eigenvalue-minimisations  :   528
 total energy-change (2. order) :-0.9895240E+03  (-0.9302344E+03)
 number of electron     158.0000000 magnetization 
 augmentation part      158.0000000 magnetization 

 DIPCOR: dipole corrections for dipol
 direction  1 min pos    13, direction  2 min pos     8, direction  3 min pos    10,
 dipolmoment          -0.004861      0.001831     -0.002649 electrons x Angstroem
 Tr[quadrupol]       115.174148

 energy correction for charged system         0.000000 eV
 dipol+quadrupol energy correction           -0.000000 eV
 added-field ion interaction          0.000591 eV  (added to PSCEN)


 Free energy of the ion-electron system (eV)
  ---------------------------------------------------
  alpha Z        PSCENC =         9.58098566
  Ewald energy   TEWEN  =     14565.47622915
  -Hartree energ DENC   =    -19696.55365300
  -exchange      EXHF   =         0.00000000
  -V(xc)+E(xc)   XCENC  =       560.43476380
  PAW double counting   =      5206.82943908    -5233.94104345
  entropy T*S    EENTRO =        -0.00000000
  eigenvalues    EBANDS =     -2335.06036542
  atomic energy  EATOM  =      6970.54093622
  Solvation  Ediel_sol  =         0.00000000
  ---------------------------------------------------
  free energy    TOTEN  =        47.30729204 eV

  energy without entropy =       47.30729204  energy(sigma->0) =       47.30729204


--------------------------------------------------------------------------------------------------------




--------------------------------------- Iteration      1(   3)  ---------------------------------------


     EDDAV:  cpu time    3.3551: real time    3.3564
       DOS:  cpu time    0.0002: real time    0.0002
    --------------------------------------------
      LOOP:  cpu time    3.3553: real time    3.3566

 eigenvalue-minimisations  :   480
 total energy-change (2. order) :-0.3908360E+03  (-0.3897643E+03)
 number of electron     158.0000000 magnetization 
 augmentation part      158.0000000 magnetization 

 DIPCOR: dipole corrections for dipol
 direction  1 min pos    13, direction  2 min pos     8, direction  3 min pos    10,
 dipolmoment          -0.004861      0.001831     -0.002649 electrons x Angstroem
 Tr[quadrupol]       115.174148

 energy correction for charged system         0.000000 eV
 dipol+quadrupol energy correction           -0.000000 eV
 added-field ion interaction          0.000591 eV  (added to PSCEN)


 Free energy of the ion-electron system (eV)
  ---------------------------------------------------
  alpha Z        PSCENC =         9.58098566
  Ewald energy   TEWEN  =     14565.47622915
  -Hartree energ DENC   =    -19696.55365300
  -exchange      EXHF   =         0.00000000
  -V(xc)+E(xc)   XCENC  =       560.43476380
  PAW double counting   =      5206.82943908    -5233.94104345
  entropy T*S    EENTRO =        -0.00000000
  eigenvalues    EBANDS =     -2725.89634338
  atomic energy  EATOM  =      6970.54093622
  Solvation  Ediel_sol  =         0.00000000
  ---------------------------------------------------
  free energy    TOTEN  =      -343.52868592 eV

  energy without entropy =     -343.52868592  energy(sigma->0) =     -343.52868592


--------------------------------------------------------------------------------------------------------




--------------------------------------- Iteration      1(   4)  ---------------------------------------


     EDDAV:  cpu time    3.1016: real time    3.1036
       DOS:  cpu time    0.0002: real time    0.0002
    --------------------------------------------
      LOOP:  cpu time    3.1018: real time    3.1038

 eigenvalue-minimisations  :   432
 total energy-change (2. order) :-0.1907892E+02  (-0.1906508E+02)
 number of electron     158.0000000 magnetization 
 augmentation part      158.0000000 magnetization 

 DIPCOR: dipole corrections for dipol
 direction  1 min pos    13, direction  2 min pos     8, direction  3 min pos    10,
 dipolmoment          -0.004861      0.001831     -0.002649 electrons x Angstroem
 Tr[quadrupol]       115.174148

 energy correction for charged system         0.000000 eV
 dipol+quadrupol energy correction           -0.000000 eV
 added-field ion interaction          0.000591 eV  (added to PSCEN)


 Free energy of the ion-electron system (eV)
  ---------------------------------------------------
  alpha Z        PSCENC =         9.58098566
  Ewald energy   TEWEN  =     14565.47622915
  -Hartree energ DENC   =    -19696.55365300
  -exchange      EXHF   =         0.00000000
  -V(xc)+E(xc)   XCENC  =       560.43476380
  PAW double counting   =      5206.82943908    -5233.94104345
  entropy T*S    EENTRO =        -0.00000000
  eigenvalues    EBANDS =     -2744.97526275
  atomic energy  EATOM  =      6970.54093622
  Solvation  Ediel_sol  =         0.00000000
  ---------------------------------------------------
  free energy    TOTEN  =      -362.60760529 eV

  energy without entropy =     -362.60760529  energy(sigma->0) =     -362.60760529


--------------------------------------------------------------------------------------------------------




--------------------------------------- Iteration      1(   5)  ---------------------------------------


     EDDAV:  cpu time    2.7751: real time    2.7772
       DOS:  cpu time    0.0002: real time    0.0002
    --------------------------------------------
      LOOP:  cpu time    2.7753: real time    2.7774

 eigenvalue-minimisations  :   384
 total energy-change (2. order) :-0.6851602E-01  (-0.6847596E-01)
 number of electron     158.0000000 magnetization 
 augmentation part      158.0000000 magnetization 

 DIPCOR: dipole corrections for dipol
 direction  1 min pos    13, direction  2 min pos     8, direction  3 min pos    10,
 dipolmoment          -0.004861      0.001831     -0.002649 electrons x Angstroem
 Tr[quadrupol]       115.174148

 energy correction for charged system         0.000000 eV
 dipol+quadrupol energy correction           -0.000000 eV
 added-field ion interaction          0.000591 eV  (added to PSCEN)


 Free energy of the ion-electron system (eV)
  ---------------------------------------------------
  alpha Z        PSCENC =         9.58098566
  Ewald energy   TEWEN  =     14565.47622915
  -Hartree energ DENC   =    -19696.55365300
  -exchange      EXHF   =         0.00000000
  -V(xc)+E(xc)   XCENC  =       560.43476380
  PAW double counting   =      5206.82943908    -5233.94104345
  entropy T*S    EENTRO =        -0.00000000
  eigenvalues    EBANDS =     -2745.04377877
  atomic energy  EATOM  =      6970.54093622
  Solvation  Ediel_sol  =         0.00000000
  ---------------------------------------------------
  free energy    TOTEN  =      -362.67612131 eV

  energy without entropy =     -362.67612131  energy(sigma->0) =     -362.67612131


--------------------------------------------------------------------------------------------------------




--------------------------------------- Iteration      1(   6)  ---------------------------------------


     EDDAV:  cpu time    2.7772: real time    2.7781
       DOS:  cpu time    0.0002: real time    0.0002
    --------------------------------------------
      LOOP:  cpu time    2.7774: real time    2.7783

 eigenvalue-minimisations  :   384
 total energy-change (2. order) :-0.1311419E-02  (-0.1311145E-02)
 number of electron     158.0000000 magnetization 
 augmentation part      158.0000000 magnetization 

 DIPCOR: dipole corrections for dipol
 direction  1 min pos    13, direction  2 min pos     8, direction  3 min pos    10,
 dipolmoment          -0.004861      0.001831     -0.002649 electrons x Angstroem
 Tr[quadrupol]       115.174148

 energy correction for charged system         0.000000 eV
 dipol+quadrupol energy correction           -0.000000 eV
 added-field ion interaction          0.000591 eV  (added to PSCEN)


 Free energy of the ion-electron system (eV)
  ---------------------------------------------------
  alpha Z        PSCENC =         9.58098566
  Ewald energy   TEWEN  =     14565.47622915
  -Hartree energ DENC   =    -19696.55365300
  -exchange      EXHF   =         0.00000000
  -V(xc)+E(xc)   XCENC  =       560.43476380
  PAW double counting   =      5206.82943908    -5233.94104345
  entropy T*S    EENTRO =        -0.00000000
  eigenvalues    EBANDS =     -2745.04509019
  atomic energy  EATOM  =      6970.54093622
  Solvation  Ediel_sol  =         0.00000000
  ---------------------------------------------------
  free energy    TOTEN  =      -362.67743273 eV

  energy without entropy =     -362.67743273  energy(sigma->0) =     -362.67743273


--------------------------------------------------------------------------------------------------------




--------------------------------------- Iteration      1(   7)  ---------------------------------------


     EDDAV:  cpu time    3.4524: real time    3.4535
       DOS:  cpu time    0.0002: real time    0.0002
    CHARGE:  cpu time    0.2007: real time    0.2038
    MIXING:  cpu time    0.0079: real time    0.0084
    --------------------------------------------
      LOOP:  cpu time    3.6613: real time    3.6659

 eigenvalue-minimisations  :   480
 total energy-change (2. order) :-0.6200662E-04  (-0.6200320E-04)
 number of electron     157.9999925 magnetization 
 augmentation part        8.5028456 magnetization 

 DIPCOR: dipole corrections for dipol
 direction  1 min pos    13, direction  2 min pos     8, direction  3 min pos    10,
 dipolmoment          -0.004861      0.001831     -0.002649 electrons x Angstroem
 Tr[quadrupol]       115.174148

 energy correction for charged system         0.000000 eV
 dipol+quadrupol energy correction           -0.000000 eV
 added-field ion interaction          0.000591 eV  (added to PSCEN)


 Broyden mixing:
  rms(total) = 0.30741E+01    rms(broyden)= 0.30721E+01
  rms(prec ) = 0.32716E+01
  weight for this iteration     100.00

 Free energy of the ion-electron system (eV)
  ---------------------------------------------------
  alpha Z        PSCENC =         9.58098566
  Ewald energy   TEWEN  =     14565.47622915
  -Hartree energ DENC   =    -19696.55365300
  -exchange      EXHF   =         0.00000000
  -V(xc)+E(xc)   XCENC  =       560.43476380
  PAW double counting   =      5206.82943908    -5233.94104345
  entropy T*S    EENTRO =        -0.00000000
  eigenvalues    EBANDS =     -2745.04515219
  atomic energy  EATOM  =      6970.54093622
  Solvation  Ediel_sol  =         0.00000000
  ---------------------------------------------------
  free energy    TOTEN  =      -362.67749473 eV

  energy without entropy =     -362.67749473  energy(sigma->0) =     -362.67749473


--------------------------------------------------------------------------------------------------------




--------------------------------------- Iteration      1(   8)  ---------------------------------------


    POTLOK:  cpu time    0.2653: real time    0.2657
    SETDIJ:  cpu time    0.0033: real time    0.0033
     EDDAV:  cpu time    3.0594: real time    3.0603
       DOS:  cpu time    0.0002: real time    0.0002
    CHARGE:  cpu time    0.2015: real time    0.2016
    MIXING:  cpu time    0.0084: real time    0.0138
    --------------------------------------------
      LOOP:  cpu time    3.5381: real time    3.5451

 eigenvalue-minimisations  :   432
 total energy-change (2. order) : 0.2314274E+02  (-0.5326699E+01)
 number of electron     157.9999938 magnetization 
 augmentation part        7.7255451 magnetization 

 DIPCOR: dipole corrections for dipol
 direction  1 min pos    12, direction  2 min pos     7, direction  3 min pos     9,
 dipolmoment          -0.079723      0.022609     -0.045659 electrons x Angstroem
 Tr[quadrupol]       109.821319

 energy correction for charged system         0.000000 eV
 dipol+quadrupol energy correction           -0.000024 eV
 added-field ion interaction          0.015507 eV  (added to PSCEN)


 Broyden mixing:
  rms(total) = 0.16081E+01    rms(broyden)= 0.16075E+01
  rms(prec ) = 0.16903E+01
  weight for this iteration     100.00

 eigenvalues of (default mixing * dielectric matrix)
  average eigenvalue GAMMA=   1.3463
  1.3463

 Free energy of the ion-electron system (eV)
  ---------------------------------------------------
  alpha Z        PSCENC =         9.59587835
  Ewald energy   TEWEN  =     14565.47622915
  -Hartree energ DENC   =    -19970.02821139
  -exchange      EXHF   =         0.00000000
  -V(xc)+E(xc)   XCENC  =       574.67994485
  PAW double counting   =      7868.58594458    -7899.17923931
  entropy T*S    EENTRO =        -0.00000000
  eigenvalues    EBANDS =     -2459.20623267
  atomic energy  EATOM  =      6970.54093622
  Solvation  Ediel_sol  =         0.00000000
  ---------------------------------------------------
  free energy    TOTEN  =      -339.53475022 eV

  energy without entropy =     -339.53475022  energy(sigma->0) =     -339.53475022


--------------------------------------------------------------------------------------------------------




--------------------------------------- Iteration      1(   9)  ---------------------------------------


    POTLOK:  cpu time    0.2655: real time    0.2664
    SETDIJ:  cpu time    0.0031: real time    0.0031
     EDDAV:  cpu time    3.0642: real time    3.0691
       DOS:  cpu time    0.0002: real time    0.0002
    CHARGE:  cpu time    0.2008: real time    0.2009
    MIXING:  cpu time    0.0085: real time    0.0086
    --------------------------------------------
      LOOP:  cpu time    3.5423: real time    3.5481

 eigenvalue-minimisations  :   432
 total energy-change (2. order) : 0.4856766E+01  (-0.1565376E+01)
 number of electron     157.9999935 magnetization 
 augmentation part        7.7023650 magnetization 

 DIPCOR: dipole corrections for dipol
 direction  1 min pos    11, direction  2 min pos     7, direction  3 min pos     9,
 dipolmoment          -0.162892      0.051692     -0.062868 electrons x Angstroem
 Tr[quadrupol]       103.607378

 energy correction for charged system         0.000000 eV
 dipol+quadrupol energy correction           -0.000088 eV
 added-field ion interaction          0.038735 eV  (added to PSCEN)


 Broyden mixing:
  rms(total) = 0.78400E+00    rms(broyden)= 0.78384E+00
  rms(prec ) = 0.81567E+00
  weight for this iteration     100.00

 eigenvalues of (default mixing * dielectric matrix)
  average eigenvalue GAMMA=   1.4675
  0.9476  1.9874

 Free energy of the ion-electron system (eV)
  ---------------------------------------------------
  alpha Z        PSCENC =         9.61904237
  Ewald energy   TEWEN  =     14565.47622915
  -Hartree energ DENC   =    -20136.75694539
  -exchange      EXHF   =         0.00000000
  -V(xc)+E(xc)   XCENC  =       582.60134709
  PAW double counting   =     10556.94067515   -10588.24224715
  entropy T*S    EENTRO =        -0.00000000
  eigenvalues    EBANDS =     -2294.85702165
  atomic energy  EATOM  =      6970.54093622
  Solvation  Ediel_sol  =         0.00000000
  ---------------------------------------------------
  free energy    TOTEN  =      -334.67798421 eV

  energy without entropy =     -334.67798421  energy(sigma->0) =     -334.67798421


--------------------------------------------------------------------------------------------------------




--------------------------------------- Iteration      1(  10)  ---------------------------------------


    POTLOK:  cpu time    0.2681: real time    0.2688
    SETDIJ:  cpu time    0.0034: real time    0.0034
     EDDAV:  cpu time    3.0612: real time    3.0623
       DOS:  cpu time    0.0002: real time    0.0002
    CHARGE:  cpu time    0.2007: real time    0.2007
    MIXING:  cpu time    0.0086: real time    0.0086
    --------------------------------------------
      LOOP:  cpu time    3.5423: real time    3.5440

 eigenvalue-minimisations  :   432
 total energy-change (2. order) : 0.9815220E+00  (-0.2369050E+00)
 number of electron     157.9999937 magnetization 
 augmentation part        7.6221173 magnetization 

 DIPCOR: dipole corrections for dipol
 direction  1 min pos    11, direction  2 min pos     7, direction  3 min pos     9,
 dipolmoment          -0.195255      0.080554     -0.067497 electrons x Angstroem
 Tr[quadrupol]        98.582882

 energy correction for charged system         0.000000 eV
 dipol+quadrupol energy correction           -0.000130 eV
 added-field ion interaction          0.049609 eV  (added to PSCEN)


 Broyden mixing:
  rms(total) = 0.29060E+00    rms(broyden)= 0.29054E+00
  rms(prec ) = 0.30775E+00
  weight for this iteration     100.00

 eigenvalues of (default mixing * dielectric matrix)
  average eigenvalue GAMMA=   1.5385
  2.3190  0.8731  1.4235

 Free energy of the ion-electron system (eV)
  ---------------------------------------------------
  alpha Z        PSCENC =         9.62987353
  Ewald energy   TEWEN  =     14565.47622915
  -Hartree energ DENC   =    -20228.75748576
  -exchange      EXHF   =         0.00000000
  -V(xc)+E(xc)   XCENC  =       587.41284563
  PAW double counting   =     12537.85142139   -12569.41388292
  entropy T*S    EENTRO =        -0.00000000
  eigenvalues    EBANDS =     -2206.43639947
  atomic energy  EATOM  =      6970.54093622
  Solvation  Ediel_sol  =         0.00000000
  ---------------------------------------------------
  free energy    TOTEN  =      -333.69646224 eV

  energy without entropy =     -333.69646224  energy(sigma->0) =     -333.69646224


--------------------------------------------------------------------------------------------------------




--------------------------------------- Iteration      1(  11)  ---------------------------------------


    POTLOK:  cpu time    0.2653: real time    0.2660
    SETDIJ:  cpu time    0.0032: real time    0.0032
     EDDAV:  cpu time    3.0542: real time    3.0577
       DOS:  cpu time    0.0002: real time    0.0002
    CHARGE:  cpu time    0.2009: real time    0.2010
    MIXING:  cpu time    0.0088: real time    0.0088
    --------------------------------------------
      LOOP:  cpu time    3.5327: real time    3.5369

 eigenvalue-minimisations  :   432
 total energy-change (2. order) : 0.1739306E+00  (-0.3784746E-01)
 number of electron     157.9999937 magnetization 
 augmentation part        7.6059997 magnetization 

 DIPCOR: dipole corrections for dipol
 direction  1 min pos    11, direction  2 min pos     7, direction  3 min pos     9,
 dipolmoment          -0.195912      0.102725     -0.052640 electrons x Angstroem
 Tr[quadrupol]        94.260836

 energy correction for charged system         0.000000 eV
 dipol+quadrupol energy correction           -0.000137 eV
 added-field ion interaction          0.052139 eV  (added to PSCEN)


 Broyden mixing:
  rms(total) = 0.90274E-01    rms(broyden)= 0.90248E-01
  rms(prec ) = 0.10911E+00
  weight for this iteration     100.00

 eigenvalues of (default mixing * dielectric matrix)
  average eigenvalue GAMMA=   1.4848
  2.3107  0.9660  0.9660  1.6965

 Free energy of the ion-electron system (eV)
  ---------------------------------------------------
  alpha Z        PSCENC =         9.63239674
  Ewald energy   TEWEN  =     14565.47622915
  -Hartree energ DENC   =    -20265.53355354
  -exchange      EXHF   =         0.00000000
  -V(xc)+E(xc)   XCENC  =       588.90753865
  PAW double counting   =     13332.68297710   -13364.05690176
  entropy T*S    EENTRO =        -0.00000000
  eigenvalues    EBANDS =     -2171.17215422
  atomic energy  EATOM  =      6970.54093622
  Solvation  Ediel_sol  =         0.00000000
  ---------------------------------------------------
  free energy    TOTEN  =      -333.52253166 eV

  energy without entropy =     -333.52253166  energy(sigma->0) =     -333.52253166


--------------------------------------------------------------------------------------------------------




--------------------------------------- Iteration      1(  12)  ---------------------------------------


    POTLOK:  cpu time    0.2693: real time    0.2695
    SETDIJ:  cpu time    0.0032: real time    0.0032
     EDDAV:  cpu time    3.0579: real time    3.0589
       DOS:  cpu time    0.0002: real time    0.0002
    CHARGE:  cpu time    0.2010: real time    0.2010
    MIXING:  cpu time    0.0093: real time    0.0093
    --------------------------------------------
      LOOP:  cpu time    3.5409: real time    3.5420

 eigenvalue-minimisations  :   432
 total energy-change (2. order) : 0.2813902E-01  (-0.7082647E-02)
 number of electron     157.9999937 magnetization 
 augmentation part        7.6134596 magnetization 

 DIPCOR: dipole corrections for dipol
 direction  1 min pos    11, direction  2 min pos     7, direction  3 min pos     9,
 dipolmoment          -0.182971      0.111301     -0.034512 electrons x Angstroem
 Tr[quadrupol]        91.495153

 energy correction for charged system         0.000000 eV
 dipol+quadrupol energy correction           -0.000125 eV
 added-field ion interaction          0.049386 eV  (added to PSCEN)


 Broyden mixing:
  rms(total) = 0.40894E-01    rms(broyden)= 0.40863E-01
  rms(prec ) = 0.61336E-01
  weight for this iteration     100.00

 eigenvalues of (default mixing * dielectric matrix)
  average eigenvalue GAMMA=   1.4358
  2.0603  2.0603  1.0559  1.0013  1.0013

 Free energy of the ion-electron system (eV)
  ---------------------------------------------------
  alpha Z        PSCENC =         9.62965624
  Ewald energy   TEWEN  =     14565.47622915
  -Hartree energ DENC   =    -20279.89920393
  -exchange      EXHF   =         0.00000000
  -V(xc)+E(xc)   XCENC  =       589.07479322
  PAW double counting   =     13401.93436759   -13433.22905735
  entropy T*S    EENTRO =        -0.00000000
  eigenvalues    EBANDS =     -2157.02211377
  atomic energy  EATOM  =      6970.54093622
  Solvation  Ediel_sol  =         0.00000000
  ---------------------------------------------------
  free energy    TOTEN  =      -333.49439265 eV

  energy without entropy =     -333.49439265  energy(sigma->0) =     -333.49439265


--------------------------------------------------------------------------------------------------------




--------------------------------------- Iteration      1(  13)  ---------------------------------------


    POTLOK:  cpu time    0.2716: real time    0.2716
    SETDIJ:  cpu time    0.0031: real time    0.0031
     EDDAV:  cpu time    2.7801: real time    2.7808
       DOS:  cpu time    0.0002: real time    0.0002
    CHARGE:  cpu time    0.1993: real time    0.1993
    MIXING:  cpu time    0.0097: real time    0.0097
    --------------------------------------------
      LOOP:  cpu time    3.2640: real time    3.2648

 eigenvalue-minimisations  :   384
 total energy-change (2. order) : 0.6302167E-02  (-0.1657502E-02)
 number of electron     157.9999937 magnetization 
 augmentation part        7.6092126 magnetization 

 DIPCOR: dipole corrections for dipol
 direction  1 min pos    10, direction  2 min pos     7, direction  3 min pos    10,
 dipolmoment          -0.200914      0.114479      0.006710 electrons x Angstroem
 Tr[quadrupol]        89.080306

 energy correction for charged system         0.000000 eV
 dipol+quadrupol energy correction           -0.000142 eV
 added-field ion interaction          0.057835 eV  (added to PSCEN)


 Broyden mixing:
  rms(total) = 0.24834E-01    rms(broyden)= 0.24831E-01
  rms(prec ) = 0.43442E-01
  weight for this iteration     100.00

 eigenvalues of (default mixing * dielectric matrix)
  average eigenvalue GAMMA=   1.4947
  2.3629  2.3629  0.9087  0.9087  1.2124  1.2124

 Free energy of the ion-electron system (eV)
  ---------------------------------------------------
  alpha Z        PSCENC =         9.63808849
  Ewald energy   TEWEN  =     14565.47622915
  -Hartree energ DENC   =    -20292.34034121
  -exchange      EXHF   =         0.00000000
  -V(xc)+E(xc)   XCENC  =       589.23709137
  PAW double counting   =     13388.08610747   -13419.37205386
  entropy T*S    EENTRO =        -0.00000000
  eigenvalues    EBANDS =     -2144.75414810
  atomic energy  EATOM  =      6970.54093622
  Solvation  Ediel_sol  =         0.00000000
  ---------------------------------------------------
  free energy    TOTEN  =      -333.48809048 eV

  energy without entropy =     -333.48809048  energy(sigma->0) =     -333.48809048


--------------------------------------------------------------------------------------------------------




--------------------------------------- Iteration      1(  14)  ---------------------------------------


    POTLOK:  cpu time    0.2688: real time    0.2696
    SETDIJ:  cpu time    0.0032: real time    0.0032
     EDDAV:  cpu time    2.7796: real time    2.7808
       DOS:  cpu time    0.0002: real time    0.0002
    CHARGE:  cpu time    0.1999: real time    0.2000
    MIXING:  cpu time    0.0101: real time    0.0101
    --------------------------------------------
      LOOP:  cpu time    3.2618: real time    3.2640

 eigenvalue-minimisations  :   384
 total energy-change (2. order) :-0.1876651E-02  (-0.8556348E-03)
 number of electron     157.9999937 magnetization 
 augmentation part        7.6101644 magnetization 

 DIPCOR: dipole corrections for dipol
 direction  1 min pos    10, direction  2 min pos     7, direction  3 min pos    12,
 dipolmoment          -0.169156      0.114832      0.064792 electrons x Angstroem
 Tr[quadrupol]        85.716265

 energy correction for charged system         0.000000 eV
 dipol+quadrupol energy correction           -0.000122 eV
 added-field ion interaction          0.054470 eV  (added to PSCEN)


 Broyden mixing:
  rms(total) = 0.15050E-01    rms(broyden)= 0.15047E-01
  rms(prec ) = 0.28213E-01
  weight for this iteration     100.00

 eigenvalues of (default mixing * dielectric matrix)
  average eigenvalue GAMMA=   1.5616
  2.6301  2.6301  1.4169  0.9096  0.9096  1.2174  1.2174

 Free energy of the ion-electron system (eV)
  ---------------------------------------------------
  alpha Z        PSCENC =         9.63474324
  Ewald energy   TEWEN  =     14565.47622915
  -Hartree energ DENC   =    -20309.13786637
  -exchange      EXHF   =         0.00000000
  -V(xc)+E(xc)   XCENC  =       589.45448106
  PAW double counting   =     13379.50838759   -13410.77595777
  entropy T*S    EENTRO =        -0.00000000
  eigenvalues    EBANDS =     -2128.19092025
  atomic energy  EATOM  =      6970.54093622
  Solvation  Ediel_sol  =         0.00000000
  ---------------------------------------------------
  free energy    TOTEN  =      -333.48996713 eV

  energy without entropy =     -333.48996713  energy(sigma->0) =     -333.48996713


--------------------------------------------------------------------------------------------------------




--------------------------------------- Iteration      1(  15)  ---------------------------------------


    POTLOK:  cpu time    0.2683: real time    0.2693
    SETDIJ:  cpu time    0.0032: real time    0.0032
     EDDAV:  cpu time    2.7885: real time    2.7895
       DOS:  cpu time    0.0002: real time    0.0002
    CHARGE:  cpu time    0.2012: real time    0.2014
    MIXING:  cpu time    0.0104: real time    0.0104
    --------------------------------------------
      LOOP:  cpu time    3.2718: real time    3.2740

 eigenvalue-minimisations  :   384
 total energy-change (2. order) :-0.1179068E-01  (-0.1003486E-02)
 number of electron     157.9999937 magnetization 
 augmentation part        7.6058715 magnetization 

 DIPCOR: dipole corrections for dipol
 direction  1 min pos    11, direction  2 min pos     8, direction  3 min pos    13,
 dipolmoment          -0.105882      0.121174      0.082469 electrons x Angstroem
 Tr[quadrupol]        82.183120

 energy correction for charged system         0.000000 eV
 dipol+quadrupol energy correction           -0.000087 eV
 added-field ion interaction          0.055053 eV  (added to PSCEN)


 Broyden mixing:
  rms(total) = 0.10902E-01    rms(broyden)= 0.10894E-01
  rms(prec ) = 0.17522E-01
  weight for this iteration     100.00

 eigenvalues of (default mixing * dielectric matrix)
  average eigenvalue GAMMA=   1.6423
  3.7746  2.4656  1.6516  1.5163  0.9309  0.9309  0.9343  0.9343

 Free energy of the ion-electron system (eV)
  ---------------------------------------------------
  alpha Z        PSCENC =         9.63536185
  Ewald energy   TEWEN  =     14565.47622915
  -Hartree energ DENC   =    -20325.66637374
  -exchange      EXHF   =         0.00000000
  -V(xc)+E(xc)   XCENC  =       589.66843970
  PAW double counting   =     13361.59753100   -13392.87170852
  entropy T*S    EENTRO =        -0.00000000
  eigenvalues    EBANDS =     -2111.88217348
  atomic energy  EATOM  =      6970.54093622
  Solvation  Ediel_sol  =         0.00000000
  ---------------------------------------------------
  free energy    TOTEN  =      -333.50175781 eV

  energy without entropy =     -333.50175781  energy(sigma->0) =     -333.50175781


--------------------------------------------------------------------------------------------------------




--------------------------------------- Iteration      1(  16)  ---------------------------------------


    POTLOK:  cpu time    0.2685: real time    0.2694
    SETDIJ:  cpu time    0.0033: real time    0.0033
     EDDAV:  cpu time    2.9053: real time    2.9062
       DOS:  cpu time    0.0002: real time    0.0002
    CHARGE:  cpu time    0.2013: real time    0.2013
    MIXING:  cpu time    0.0108: real time    0.0108
    --------------------------------------------
      LOOP:  cpu time    3.3893: real time    3.3912

 eigenvalue-minimisations  :   384
 total energy-change (2. order) :-0.8699756E-02  (-0.3859175E-03)
 number of electron     157.9999937 magnetization 
 augmentation part        7.6036829 magnetization 

 DIPCOR: dipole corrections for dipol
 direction  1 min pos    11, direction  2 min pos    11, direction  3 min pos    14,
 dipolmoment          -0.082669      0.142827      0.084730 electrons x Angstroem
 Tr[quadrupol]        79.907536

 energy correction for charged system         0.000000 eV
 dipol+quadrupol energy correction           -0.000091 eV
 added-field ion interaction          0.101657 eV  (added to PSCEN)


 Broyden mixing:
  rms(total) = 0.65469E-02    rms(broyden)= 0.65434E-02
  rms(prec ) = 0.10640E-01
  weight for this iteration     100.00

 eigenvalues of (default mixing * dielectric matrix)
  average eigenvalue GAMMA=   1.7074
  4.4657  2.4594  1.8710  1.4631  1.1416  1.1416  0.9334  0.9455  0.9455

 Free energy of the ion-electron system (eV)
  ---------------------------------------------------
  alpha Z        PSCENC =         9.68196088
  Ewald energy   TEWEN  =     14565.47622915
  -Hartree energ DENC   =    -20334.31606851
  -exchange      EXHF   =         0.00000000
  -V(xc)+E(xc)   XCENC  =       589.74541144
  PAW double counting   =     13347.64550098   -13378.91436661
  entropy T*S    EENTRO =        -0.00000000
  eigenvalues    EBANDS =     -2103.37006111
  atomic energy  EATOM  =      6970.54093622
  Solvation  Ediel_sol  =         0.00000000
  ---------------------------------------------------
  free energy    TOTEN  =      -333.51045757 eV

  energy without entropy =     -333.51045757  energy(sigma->0) =     -333.51045757


--------------------------------------------------------------------------------------------------------




--------------------------------------- Iteration      1(  17)  ---------------------------------------


    POTLOK:  cpu time    0.2711: real time    0.2720
    SETDIJ:  cpu time    0.0032: real time    0.0032
     EDDAV:  cpu time    3.0657: real time    3.0666
       DOS:  cpu time    0.0004: real time    0.0004
    CHARGE:  cpu time    0.1988: real time    0.1989
    MIXING:  cpu time    0.0113: real time    0.0113
    --------------------------------------------
      LOOP:  cpu time    3.5505: real time    3.5523

 eigenvalue-minimisations  :   432
 total energy-change (2. order) : 0.4660340E+01  (-0.8200116E+01)
 number of electron     157.9999935 magnetization 
 augmentation part        7.5088159 magnetization 

 DIPCOR: dipole corrections for dipol
 direction  1 min pos    16, direction  2 min pos   125, direction  3 min pos    71,
 dipolmoment          -0.006933     28.894696    -68.616268 electrons x Angstroem
 Tr[quadrupol]      -992.156261

 energy correction for charged system         0.000000 eV
 dipol+quadrupol energy correction          -14.676653 eV
 added-field ion interaction       -132.966285 eV  (added to PSCEN)


 Broyden mixing:
  rms(total) = 0.11651E+01    rms(broyden)= 0.11639E+01
  rms(prec ) = 0.16188E+01
  weight for this iteration     100.00

 eigenvalues of (default mixing * dielectric matrix)
  average eigenvalue GAMMA=   1.5372
  4.4724  2.4572  1.8834  1.4423  1.1391  1.1391  0.9421  0.9482  0.9482  0.0006

 Free energy of the ion-electron system (eV)
  ---------------------------------------------------
  alpha Z        PSCENC =      -138.06254250
  Ewald energy   TEWEN  =     14565.47622915
  -Hartree energ DENC   =    -20338.46056378
  -exchange      EXHF   =         0.00000000
  -V(xc)+E(xc)   XCENC  =       589.74096110
  PAW double counting   =     13342.62202674   -13373.88112922
  entropy T*S    EENTRO =        -0.00960458
  eigenvalues    EBANDS =     -1946.81643064
  atomic energy  EATOM  =      6970.54093622
  Solvation  Ediel_sol  =         0.00000000
  ---------------------------------------------------
  free energy    TOTEN  =      -328.85011752 eV

  energy without entropy =     -328.84051294  energy(sigma->0) =     -328.84531523


--------------------------------------------------------------------------------------------------------




--------------------------------------- Iteration      1(  18)  ---------------------------------------


    POTLOK:  cpu time    0.2669: real time    0.2677
    SETDIJ:  cpu time    0.0031: real time    0.0031
     EDDAV:  cpu time    3.3556: real time    3.3609
       DOS:  cpu time    0.0002: real time    0.0002
    CHARGE:  cpu time    0.1971: real time    0.1971
    MIXING:  cpu time    0.0113: real time    0.0163
    --------------------------------------------
      LOOP:  cpu time    3.8342: real time    3.8453

 eigenvalue-minimisations  :   480
 total energy-change (2. order) :-0.3880638E+01  (-0.2732930E+02)
 number of electron     157.9999937 magnetization 
 augmentation part        7.6181051 magnetization 

 DIPCOR: dipole corrections for dipol
 direction  1 min pos    45, direction  2 min pos    27, direction  3 min pos    21,
 dipolmoment           4.152840      0.249111      0.096060 electrons x Angstroem
 Tr[quadrupol]        48.525544

 energy correction for charged system         0.000000 eV
 dipol+quadrupol energy correction           -0.045856 eV
 added-field ion interaction         11.351921 eV  (added to PSCEN)


 Broyden mixing:
  rms(total) = 0.15764E+00    rms(broyden)= 0.15211E+00
  rms(prec ) = 0.16288E+00
  weight for this iteration     100.00

 eigenvalues of (default mixing * dielectric matrix)
  average eigenvalue GAMMA=   1.3994
  4.4836  2.4650  1.8924  1.4283  1.1328  1.1328  0.9521  0.9491  0.9491  0.0074
  0.0003

 Free energy of the ion-electron system (eV)
  ---------------------------------------------------
  alpha Z        PSCENC =        20.88646042
  Ewald energy   TEWEN  =     14565.47622915
  -Hartree energ DENC   =    -20338.36841957
  -exchange      EXHF   =         0.00000000
  -V(xc)+E(xc)   XCENC  =       589.81675807
  PAW double counting   =     13342.62371715   -13373.88276569
  entropy T*S    EENTRO =        -0.00000000
  eigenvalues    EBANDS =     -2109.82367166
  atomic energy  EATOM  =      6970.54093622
  Solvation  Ediel_sol  =         0.00000000
  ---------------------------------------------------
  free energy    TOTEN  =      -332.73075591 eV

  energy without entropy =     -332.73075591  energy(sigma->0) =     -332.73075591


--------------------------------------------------------------------------------------------------------




--------------------------------------- Iteration      1(  19)  ---------------------------------------


    POTLOK:  cpu time    0.2686: real time    0.2688
    SETDIJ:  cpu time    0.0032: real time    0.0032
     EDDAV:  cpu time    3.0707: real time    3.0717
       DOS:  cpu time    0.0002: real time    0.0002
    CHARGE:  cpu time    0.2014: real time    0.2014
    MIXING:  cpu time    0.0121: real time    0.0121
    --------------------------------------------
      LOOP:  cpu time    3.5562: real time    3.5575

 eigenvalue-minimisations  :   432
 total energy-change (2. order) :-0.7726323E+00  (-0.6426245E+00)
 number of electron     157.9999937 magnetization 
 augmentation part        7.6034459 magnetization 

 DIPCOR: dipole corrections for dipol
 direction  1 min pos    20, direction  2 min pos    15, direction  3 min pos    15,
 dipolmoment           0.040771      0.146572      0.074653 electrons x Angstroem
 Tr[quadrupol]        78.427858

 energy correction for charged system         0.000000 eV
 dipol+quadrupol energy correction           -0.000076 eV
 added-field ion interaction          0.175486 eV  (added to PSCEN)


 Broyden mixing:
  rms(total) = 0.16778E-01    rms(broyden)= 0.12287E-01
  rms(prec ) = 0.13698E-01
  weight for this iteration     100.00
  WARNING: grid for Broyden might be to small

 eigenvalues of (default mixing * dielectric matrix)
  average eigenvalue GAMMA=   1.3031
  4.5499  2.4668  1.9085  1.4626  1.1133  1.1133  0.9756  0.9485  0.9485  0.1222
  0.0279  0.0003

 Free energy of the ion-electron system (eV)
  ---------------------------------------------------
  alpha Z        PSCENC =         9.75580497
  Ewald energy   TEWEN  =     14565.47622915
  -Hartree energ DENC   =    -20338.33195943
  -exchange      EXHF   =         0.00000000
  -V(xc)+E(xc)   XCENC  =       589.74802523
  PAW double counting   =     13344.33947705   -13375.59883223
  entropy T*S    EENTRO =        -0.00000000
  eigenvalues    EBANDS =     -2099.43306916
  atomic energy  EATOM  =      6970.54093622
  Solvation  Ediel_sol  =         0.00000000
  ---------------------------------------------------
  free energy    TOTEN  =      -333.50338820 eV

  energy without entropy =     -333.50338820  energy(sigma->0) =     -333.50338820


--------------------------------------------------------------------------------------------------------




--------------------------------------- Iteration      1(  20)  ---------------------------------------


    POTLOK:  cpu time    0.2689: real time    0.2690
    SETDIJ:  cpu time    0.0032: real time    0.0032
     EDDAV:  cpu time    2.7857: real time    2.7865
       DOS:  cpu time    0.0002: real time    0.0002
    CHARGE:  cpu time    0.2016: real time    0.2017
    MIXING:  cpu time    0.0131: real time    0.0131
    --------------------------------------------
      LOOP:  cpu time    3.2727: real time    3.2737

 eigenvalue-minimisations  :   384
 total energy-change (2. order) : 0.1693315E+01  (-0.4960122E+00)
 number of electron     157.9999937 magnetization 
 augmentation part        7.5964671 magnetization 

 DIPCOR: dipole corrections for dipol
 direction  1 min pos    16, direction  2 min pos   125, direction  3 min pos    70,
 dipolmoment          -0.012080     28.898740     -6.098709 electrons x Angstroem
 Tr[quadrupol]     -1019.526045

 energy correction for charged system         0.000000 eV
 dipol+quadrupol energy correction           -2.309781 eV
 added-field ion interaction        -17.511327 eV  (added to PSCEN)


 Broyden mixing:
  rms(total) = 0.17281E+00    rms(broyden)= 0.17263E+00
  rms(prec ) = 0.19500E+00
  weight for this iteration     100.00

 eigenvalues of (default mixing * dielectric matrix)
  average eigenvalue GAMMA=   1.2035
  4.5519  2.4675  1.9104  1.4600  1.1170  1.1170  0.9734  0.9478  0.9478  0.1073
  0.0349  0.0104  0.0003

 Free energy of the ion-electron system (eV)
  ---------------------------------------------------
  alpha Z        PSCENC =       -10.24071355
  Ewald energy   TEWEN  =     14565.47622915
  -Hartree energ DENC   =    -20339.90177484
  -exchange      EXHF   =         0.00000000
  -V(xc)+E(xc)   XCENC  =       589.73820239
  PAW double counting   =     13344.30884430   -13375.56455344
  entropy T*S    EENTRO =        -0.00000000
  eigenvalues    EBANDS =     -2076.16724334
  atomic energy  EATOM  =      6970.54093622
  Solvation  Ediel_sol  =         0.00000000
  ---------------------------------------------------
  free energy    TOTEN  =      -331.81007311 eV

  energy without entropy =     -331.81007311  energy(sigma->0) =     -331.81007311


--------------------------------------------------------------------------------------------------------




--------------------------------------- Iteration      1(  21)  ---------------------------------------


    POTLOK:  cpu time    0.2689: real time    0.2694
    SETDIJ:  cpu time    0.0031: real time    0.0031
     EDDAV:  cpu time    3.0656: real time    3.0667
       DOS:  cpu time    0.0004: real time    0.0004
    CHARGE:  cpu time    0.2014: real time    0.2014
    MIXING:  cpu time    0.0131: real time    0.0132
    --------------------------------------------
      LOOP:  cpu time    3.5525: real time    3.5541

 eigenvalue-minimisations  :   432
 total energy-change (2. order) :-0.8750806E+00  (-0.1013432E+02)
 number of electron     157.9999967 magnetization 
 augmentation part        7.0346693 magnetization 

 DIPCOR: dipole corrections for dipol
 direction  1 min pos    44, direction  2 min pos   140, direction  3 min pos    77,
 dipolmoment           3.003625    -42.034999     63.456295 electrons x Angstroem
 Tr[quadrupol]     -1250.932173

 energy correction for charged system         0.000000 eV
 dipol+quadrupol energy correction          -15.363339 eV
 added-field ion interaction        180.423361 eV  (added to PSCEN)


 Broyden mixing:
  rms(total) = 0.22335E+01    rms(broyden)= 0.22299E+01
  rms(prec ) = 0.26187E+01
  weight for this iteration     100.00

 eigenvalues of (default mixing * dielectric matrix)
  average eigenvalue GAMMA=   1.1176
  4.5542  2.4657  1.9139  1.4593  1.1170  1.1170  0.9715  0.9471  0.9471  0.1082
  0.0346  0.0103  0.0001  0.0003

 Free energy of the ion-electron system (eV)
  ---------------------------------------------------
  alpha Z        PSCENC =       174.64041651
  Ewald energy   TEWEN  =     14565.47622915
  -Hartree energ DENC   =    -20339.92961996
  -exchange      EXHF   =         0.00000000
  -V(xc)+E(xc)   XCENC  =       589.74117268
  PAW double counting   =     13344.21891820   -13375.47455542
  entropy T*S    EENTRO =        -0.00024515
  eigenvalues    EBANDS =     -2261.89840596
  atomic energy  EATOM  =      6970.54093622
  Solvation  Ediel_sol  =         0.00000000
  ---------------------------------------------------
  free energy    TOTEN  =      -332.68515374 eV

  energy without entropy =     -332.68490859  energy(sigma->0) =     -332.68503117


--------------------------------------------------------------------------------------------------------




--------------------------------------- Iteration      1(  22)  ---------------------------------------


    POTLOK:  cpu time    0.2718: real time    0.2720
    SETDIJ:  cpu time    0.0425: real time    0.0425
     EDDAV:  cpu time    3.3599: real time    3.3612
       DOS:  cpu time    0.0002: real time    0.0002
    CHARGE:  cpu time    0.2009: real time    0.2010
    MIXING:  cpu time    0.0137: real time    0.0137
    --------------------------------------------
      LOOP:  cpu time    3.8891: real time    3.8906

 eigenvalue-minimisations  :   480
 total energy-change (2. order) : 0.3959750E+00  (-0.2336125E+02)
 number of electron     157.9999937 magnetization 
 augmentation part        7.6122852 magnetization 

 DIPCOR: dipole corrections for dipol
 direction  1 min pos    47, direction  2 min pos    27, direction  3 min pos    21,
 dipolmoment           7.464860      0.210637      0.076589 electrons x Angstroem
 Tr[quadrupol]        26.228710

 energy correction for charged system         0.000000 eV
 dipol+quadrupol energy correction           -0.147687 eV
 added-field ion interaction         21.072520 eV  (added to PSCEN)


 Broyden mixing:
  rms(total) = 0.18012E+00    rms(broyden)= 0.15038E+00
  rms(prec ) = 0.16289E+00
  weight for this iteration     100.00
  WARNING: grid for Broyden might be to small

 eigenvalues of (default mixing * dielectric matrix)
  average eigenvalue GAMMA=   1.0431
  4.5542  2.4654  1.9153  1.4573  1.1173  1.1173  0.9731  0.9468  0.9468  0.0963
  0.0417  0.0129  0.0009  0.0003  0.0003

 Free energy of the ion-electron system (eV)
  ---------------------------------------------------
  alpha Z        PSCENC =        30.50522834
  Ewald energy   TEWEN  =     14565.47622915
  -Hartree energ DENC   =    -20339.87366586
  -exchange      EXHF   =         0.00000000
  -V(xc)+E(xc)   XCENC  =       589.94813962
  PAW double counting   =     13344.12458481   -13375.38009851
  entropy T*S    EENTRO =        -0.00000000
  eigenvalues    EBANDS =     -2117.63053251
  atomic energy  EATOM  =      6970.54093622
  Solvation  Ediel_sol  =         0.00000000
  ---------------------------------------------------
  free energy    TOTEN  =      -332.28917875 eV

  energy without entropy =     -332.28917875  energy(sigma->0) =     -332.28917875


--------------------------------------------------------------------------------------------------------




--------------------------------------- Iteration      1(  23)  ---------------------------------------


    POTLOK:  cpu time    0.2713: real time    0.2721
    SETDIJ:  cpu time    0.0029: real time    0.0029
     EDDAV:  cpu time    3.3637: real time    3.3648
       DOS:  cpu time    0.0002: real time    0.0002
    CHARGE:  cpu time    0.2026: real time    0.2027
    MIXING:  cpu time    0.0142: real time    0.0142
    --------------------------------------------
      LOOP:  cpu time    3.8550: real time    3.8570

 eigenvalue-minimisations  :   480
 total energy-change (2. order) : 0.6884376E+01  (-0.7331290E+01)
 number of electron     157.9999954 magnetization 
 augmentation part        7.2524916 magnetization 

 DIPCOR: dipole corrections for dipol
 direction  1 min pos    19, direction  2 min pos   127, direction  3 min pos    71,
 dipolmoment           0.011729    -29.125494    -68.626235 electrons x Angstroem
 Tr[quadrupol]      -960.424397

 energy correction for charged system         0.000000 eV
 dipol+quadrupol energy correction          -14.715956 eV
 added-field ion interaction       -116.476637 eV  (added to PSCEN)


 Broyden mixing:
  rms(total) = 0.14508E+01    rms(broyden)= 0.14481E+01
  rms(prec ) = 0.16985E+01
  weight for this iteration     100.00

 eigenvalues of (default mixing * dielectric matrix)
  average eigenvalue GAMMA=   0.9787
  4.5605  2.4606  1.9314  1.4319  1.1048  1.1048  0.9966  0.9517  0.9517  0.0955
  0.0433  0.0152  0.0077  0.0031  0.0003  0.0002

 Free energy of the ion-electron system (eV)
  ---------------------------------------------------
  alpha Z        PSCENC =      -121.61219817
  Ewald energy   TEWEN  =     14565.47622915
  -Hartree energ DENC   =    -20339.60213243
  -exchange      EXHF   =         0.00000000
  -V(xc)+E(xc)   XCENC  =       589.75259805
  PAW double counting   =     13346.44736145   -13377.70696204
  entropy T*S    EENTRO =        -0.00000000
  eigenvalues    EBANDS =     -1958.70063516
  atomic energy  EATOM  =      6970.54093622
  Solvation  Ediel_sol  =         0.00000000
  ---------------------------------------------------
  free energy    TOTEN  =      -325.40480295 eV

  energy without entropy =     -325.40480295  energy(sigma->0) =     -325.40480295


--------------------------------------------------------------------------------------------------------




--------------------------------------- Iteration      1(  24)  ---------------------------------------


    POTLOK:  cpu time    0.2684: real time    0.2685
    SETDIJ:  cpu time    0.0033: real time    0.0033
     EDDAV:  cpu time    3.4595: real time    3.4605
       DOS:  cpu time    0.0002: real time    0.0002
    CHARGE:  cpu time    0.2026: real time    0.2026
    MIXING:  cpu time    0.0148: real time    0.0148
    --------------------------------------------
      LOOP:  cpu time    3.9488: real time    3.9499

 eigenvalue-minimisations  :   480
 total energy-change (2. order) :-0.4023257E+01  (-0.3449085E+02)
 number of electron     157.9999968 magnetization 
 augmentation part        6.9942282 magnetization 

 DIPCOR: dipole corrections for dipol
 direction  1 min pos    44, direction  2 min pos   140, direction  3 min pos    77,
 dipolmoment           3.000839    -42.010245     63.423715 electrons x Angstroem
 Tr[quadrupol]     -1250.748774

 energy correction for charged system         0.000000 eV
 dipol+quadrupol energy correction          -15.346859 eV
 added-field ion interaction        180.325231 eV  (added to PSCEN)


 Broyden mixing:
  rms(total) = 0.21808E+01    rms(broyden)= 0.21765E+01
  rms(prec ) = 0.25527E+01
  weight for this iteration     100.00

 eigenvalues of (default mixing * dielectric matrix)
  average eigenvalue GAMMA=   0.9240
  4.5546  2.4642  1.9519  1.4037  1.0904  1.0904  1.0162  0.9586  0.9586  0.0816
  0.0816  0.0318  0.0208  0.0036  0.0002  0.0002  0.0003

 Free energy of the ion-electron system (eV)
  ---------------------------------------------------
  alpha Z        PSCENC =       174.55876691
  Ewald energy   TEWEN  =     14565.47622915
  -Hartree energ DENC   =    -20339.53711236
  -exchange      EXHF   =         0.00000000
  -V(xc)+E(xc)   XCENC  =       589.82666087
  PAW double counting   =     13346.36574263   -13377.62510999
  entropy T*S    EENTRO =        -0.00000000
  eigenvalues    EBANDS =     -2259.03417340
  atomic energy  EATOM  =      6970.54093622
  Solvation  Ediel_sol  =         0.00000000
  ---------------------------------------------------
  free energy    TOTEN  =      -329.42805997 eV

  energy without entropy =     -329.42805997  energy(sigma->0) =     -329.42805997


--------------------------------------------------------------------------------------------------------




--------------------------------------- Iteration      1(  25)  ---------------------------------------


    POTLOK:  cpu time    0.2678: real time    0.2686
    SETDIJ:  cpu time    0.0032: real time    0.0032
     EDDAV:  cpu time    3.3587: real time    3.3597
       DOS:  cpu time    0.0002: real time    0.0002
    CHARGE:  cpu time    0.2026: real time    0.2027
    MIXING:  cpu time    0.0154: real time    0.0154
    --------------------------------------------
      LOOP:  cpu time    3.8479: real time    3.8498

 eigenvalue-minimisations  :   480
 total energy-change (2. order) :-0.2706967E+01  (-0.2478717E+02)
 number of electron     157.9999938 magnetization 
 augmentation part        7.6064073 magnetization 

 DIPCOR: dipole corrections for dipol
[...]
     EDDAV:  cpu time    2.8277: real time    2.8281
       DOS:  cpu time    0.0002: real time    0.0002
    CHARGE:  cpu time    0.2011: real time    0.2011
    MIXING:  cpu time    0.0078: real time    0.0078
    --------------------------------------------
      LOOP:  cpu time    3.3089: real time    3.3098

 eigenvalue-minimisations  :   384
 total energy-change (2. order) :-0.4479676E-05  (-0.6679694E-05)
 number of electron     158.0000032 magnetization 
 augmentation part        7.5879348 magnetization 

 DIPCOR: dipole corrections for dipol
 direction  1 min pos    12, direction  2 min pos     8, direction  3 min pos    10,
 dipolmoment          -0.080876      0.054023      0.033757 electrons x Angstroem
 Tr[quadrupol]        76.277617

 energy correction for charged system         0.000000 eV
 dipol+quadrupol energy correction           -0.000028 eV
 added-field ion interaction          0.012445 eV  (added to PSCEN)


 eigenvalues of (default mixing * dielectric matrix)
  average eigenvalue GAMMA=   1.0738
  1.0738

  free energy =  -0.333706836896E+03  energy without entropy=  -0.333706836896E+03


--------------------------------------------------------------------------------------------------------




--------------------------------------- Iteration     57(   3)  ---------------------------------------


    POTLOK:  cpu time    0.2672: real time    0.2686
    SETDIJ:  cpu time    0.0030: real time    0.0030
     EDDAV:  cpu time    2.6356: real time    2.6362
       DOS:  cpu time    0.0002: real time    0.0002
    CHARGE:  cpu time    0.2010: real time    0.2010
    MIXING:  cpu time    0.0082: real time    0.0082
    --------------------------------------------
      LOOP:  cpu time    3.1153: real time    3.1172

 eigenvalue-minimisations  :   336
 total energy-change (2. order) :-0.3384230E-07  (-0.2618642E-06)
 number of electron     158.0000032 magnetization 
 augmentation part        7.5879333 magnetization 

 DIPCOR: dipole corrections for dipol
 direction  1 min pos    12, direction  2 min pos     8, direction  3 min pos    10,
 dipolmoment          -0.080893      0.054030      0.033756 electrons x Angstroem
 Tr[quadrupol]        76.275339

 energy correction for charged system         0.000000 eV
 dipol+quadrupol energy correction           -0.000028 eV
 added-field ion interaction          0.012447 eV  (added to PSCEN)


 eigenvalues of (default mixing * dielectric matrix)
  average eigenvalue GAMMA=   1.5818
  0.8711  2.2925

  free energy =  -0.333706836930E+03  energy without entropy=  -0.333706836930E+03


--------------------------------------------------------------------------------------------------------




--------------------------------------- Iteration     57(   4)  ---------------------------------------


    POTLOK:  cpu time    0.2698: real time    0.2702
    SETDIJ:  cpu time    0.0030: real time    0.0030
     EDDAV:  cpu time    2.5442: real time    2.5455
       DOS:  cpu time    0.0002: real time    0.0002
    CHARGE:  cpu time    0.2012: real time    0.2013
    MIXING:  cpu time    0.0087: real time    0.0087
    --------------------------------------------
      LOOP:  cpu time    3.0271: real time    3.0289

 eigenvalue-minimisations  :   336
 total energy-change (2. order) :-0.8957250E-06  (-0.9865670E-07)
 number of electron     158.0000032 magnetization 
 augmentation part        7.5879304 magnetization 

 DIPCOR: dipole corrections for dipol
 direction  1 min pos    12, direction  2 min pos     8, direction  3 min pos    10,
 dipolmoment          -0.080927      0.054047      0.033750 electrons x Angstroem
 Tr[quadrupol]        76.271321

 energy correction for charged system         0.000000 eV
 dipol+quadrupol energy correction           -0.000028 eV
 added-field ion interaction          0.012454 eV  (added to PSCEN)


 eigenvalues of (default mixing * dielectric matrix)
  average eigenvalue GAMMA=   1.4346
  2.4270  0.9383  0.9383

  free energy =  -0.333706837826E+03  energy without entropy=  -0.333706837826E+03


--------------------------------------------------------------------------------------------------------




--------------------------------------- Iteration     57(   5)  ---------------------------------------


    POTLOK:  cpu time    0.2690: real time    0.2698
    SETDIJ:  cpu time    0.0030: real time    0.0030
     EDDAV:  cpu time    2.8287: real time    2.8309
       DOS:  cpu time    0.0002: real time    0.0002
    --------------------------------------------
      LOOP:  cpu time    3.1009: real time    3.1039

 eigenvalue-minimisations  :   384
 total energy-change (2. order) :-0.2895522E-06  (-0.2373504E-07)
 number of electron     158.0000032 magnetization 
 augmentation part        7.5879304 magnetization 

 DIPCOR: dipole corrections for dipol
 direction  1 min pos    12, direction  2 min pos     8, direction  3 min pos    10,
 dipolmoment          -0.080947      0.054060      0.033759 electrons x Angstroem
 Tr[quadrupol]        76.269914

 energy correction for charged system         0.000000 eV
 dipol+quadrupol energy correction           -0.000028 eV
 added-field ion interaction          0.012456 eV  (added to PSCEN)


  free energy =  -0.333706838115E+03  energy without entropy=  -0.333706838115E+03


--------------------------------------------------------------------------------------------------------




------------------------ aborting loop because EDIFF is reached ----------------------------------------


    CHARGE:  cpu time    0.2049: real time    0.2050
    FORLOC:  cpu time    0.0748: real time    0.0748
    FORNL :  cpu time    0.4738: real time    0.4738
    STRESS:  cpu time    1.4167: real time    1.4176
    FORCOR:  cpu time    0.2502: real time    0.2502
    FORHAR:  cpu time    0.1221: real time    0.1221
    MIXING:  cpu time    0.0087: real time    0.0087
    OFIELD:  cpu time    0.0001: real time    0.0001

  Number of pair interactions contributing to vdW energy:   34167
  Edisp (eV):   -1.10824
    FORVDW:  cpu time    0.0045: real time    0.0045

  FORCE on cell =-STRESS in cart. coord.  units (eV):
  Direction    XX          YY          ZZ          XY          YZ          ZX
  --------------------------------------------------------------------------------------
  Alpha Z     9.58039     9.58039     9.58039
  Ewald    6111.24798   815.77291  7653.33409 -6825.71870  5542.67144 -2941.01823
  Hartree  7725.10416  3765.74028  8870.83481 -5527.64473  4684.68259 -3010.23223
  E(xc)    -634.84311  -641.18465  -632.76013    -5.20128     3.00499     1.82751
  Local  -15543.17569 -6395.64179-18183.64859 12278.80860-10188.67698  6004.31869
  n-local  -334.74482  -322.23003  -337.68579     4.77630     0.52829   -11.37496
  augment    46.97489    48.65069    45.84260     0.97951    -0.54117    -1.09655
  Kinetic  2617.04331  2716.33597  2571.50489    73.94696   -41.76471   -42.21808
  Fock        0.00000     0.00000     0.00000     0.00000     0.00000     0.00000
  vdW         0.00387     0.04480     0.30849     0.24265    -0.17661     0.34741
  -------------------------------------------------------------------------------------
  Total      -2.80901    -2.93141    -2.68924     0.18933    -0.27216     0.55357
  in kB      -0.39511    -0.41233    -0.37826     0.02663    -0.03828     0.07786
  external pressure =       -0.40 kB  Pullay stress =        0.00 kB



--------------------------------------------------------------------------------------------------------



  FREE ENERGIE OF THE ION-ELECTRON SYSTEM (eV)
  ---------------------------------------------------
  free  energy   TOTEN  =      -334.81507712 eV

  energy  without entropy=     -334.81507712  energy(sigma->0) =     -334.81507712
 
 d Force = 0.4171729E-05[ 0.131E-05, 0.703E-05]  d Energy = 0.6584541E-05-0.241E-05
 d Force =-0.2587218E+00[-0.259E+00,-0.259E+00]  d Ewald  =-0.2587218E+00-0.122E-09


--------------------------------------------------------------------------------------------------------


    POTLOK:  cpu time    0.2703: real time    0.2710


--------------------------------------------------------------------------------------------------------




--------------------------------------------------------------------------------------------------------


    WAVPRE:  cpu time    0.0872: real time    0.0886
    FEWALD:  cpu time    0.0009: real time    0.0009
    ORTHCH:  cpu time    0.2192: real time    0.2193
     LOOP+:  cpu time   19.0137: real time   19.0268


--------------------------------------- Iteration     58(   1)  ---------------------------------------


    POTLOK:  cpu time    0.2694: real time    0.2697
    SETDIJ:  cpu time    0.0030: real time    0.0030
     EDDAV:  cpu time    2.2503: real time    2.2508
       DOS:  cpu time    0.0002: real time    0.0002
    CHARGE:  cpu time    0.2015: real time    0.2015
    MIXING:  cpu time    0.0073: real time    0.0073
    --------------------------------------------
      LOOP:  cpu time    2.7318: real time    2.7325

 eigenvalue-minimisations  :   288
 total energy-change (2. order) :-0.4092865E-04  (-0.3148947E-02)
 number of electron     158.0000032 magnetization 
 augmentation part        7.5876163 magnetization 

 DIPCOR: dipole corrections for dipol
 direction  1 min pos    12, direction  2 min pos     8, direction  3 min pos    10,
 dipolmoment          -0.080957      0.054069      0.033764 electrons x Angstroem
 Tr[quadrupol]        76.268975

 energy correction for charged system         0.000000 eV
 dipol+quadrupol energy correction           -0.000028 eV
 added-field ion interaction          0.012455 eV  (added to PSCEN)


  free energy =  -0.333706878754E+03  energy without entropy=  -0.333706878754E+03


--------------------------------------------------------------------------------------------------------




--------------------------------------- Iteration     58(   2)  ---------------------------------------


    POTLOK:  cpu time    0.2683: real time    0.2698
    SETDIJ:  cpu time    0.0030: real time    0.0030
     EDDAV:  cpu time    2.8107: real time    2.8112
       DOS:  cpu time    0.0002: real time    0.0002
    CHARGE:  cpu time    0.2012: real time    0.2012
    MIXING:  cpu time    0.0078: real time    0.0078
    --------------------------------------------
      LOOP:  cpu time    3.2913: real time    3.2932

 eigenvalue-minimisations  :   384
 total energy-change (2. order) :-0.3002779E-04  (-0.5137279E-04)
 number of electron     158.0000032 magnetization 
 augmentation part        7.5876425 magnetization 

 DIPCOR: dipole corrections for dipol
 direction  1 min pos    12, direction  2 min pos     8, direction  3 min pos    10,
 dipolmoment          -0.080980      0.054093      0.033729 electrons x Angstroem
 Tr[quadrupol]        76.270556

 energy correction for charged system         0.000000 eV
 dipol+quadrupol energy correction           -0.000028 eV
 added-field ion interaction          0.012468 eV  (added to PSCEN)


 eigenvalues of (default mixing * dielectric matrix)
  average eigenvalue GAMMA=   1.0480
  1.0480

  free energy =  -0.333706908782E+03  energy without entropy=  -0.333706908782E+03


--------------------------------------------------------------------------------------------------------




--------------------------------------- Iteration     58(   3)  ---------------------------------------


    POTLOK:  cpu time    0.2685: real time    0.2695
    SETDIJ:  cpu time    0.0030: real time    0.0030
     EDDAV:  cpu time    2.8185: real time    2.8227
       DOS:  cpu time    0.0002: real time    0.0002
    CHARGE:  cpu time    0.2014: real time    0.2014
    MIXING:  cpu time    0.0082: real time    0.0082
    --------------------------------------------
      LOOP:  cpu time    3.2999: real time    3.3051

 eigenvalue-minimisations  :   384
 total energy-change (2. order) : 0.1737541E-05  (-0.2376774E-05)
 number of electron     158.0000032 magnetization 
 augmentation part        7.5876523 magnetization 

 DIPCOR: dipole corrections for dipol
 direction  1 min pos    12, direction  2 min pos     8, direction  3 min pos    10,
 dipolmoment          -0.081016      0.054113      0.033702 electrons x Angstroem
 Tr[quadrupol]        76.269427

 energy correction for charged system         0.000000 eV
 dipol+quadrupol energy correction           -0.000028 eV
 added-field ion interaction          0.012478 eV  (added to PSCEN)


 eigenvalues of (default mixing * dielectric matrix)
  average eigenvalue GAMMA=   1.5591
  0.8455  2.2728

  free energy =  -0.333706907044E+03  energy without entropy=  -0.333706907044E+03


--------------------------------------------------------------------------------------------------------




--------------------------------------- Iteration     58(   4)  ---------------------------------------


    POTLOK:  cpu time    0.2705: real time    0.2730
    SETDIJ:  cpu time    0.0031: real time    0.0031
     EDDAV:  cpu time    2.8157: real time    2.8167
       DOS:  cpu time    0.0002: real time    0.0002
    CHARGE:  cpu time    0.2002: real time    0.2011
    MIXING:  cpu time    0.0086: real time    0.0086
    --------------------------------------------
      LOOP:  cpu time    3.2984: real time    3.3027

 eigenvalue-minimisations  :   384
 total energy-change (2. order) :-0.4421185E-05  (-0.9242536E-06)
 number of electron     158.0000032 magnetization 
 augmentation part        7.5876512 magnetization 

 DIPCOR: dipole corrections for dipol
 direction  1 min pos    12, direction  2 min pos     8, direction  3 min pos    10,
 dipolmoment          -0.081058      0.054147      0.033664 electrons x Angstroem
 Tr[quadrupol]        76.266743

 energy correction for charged system         0.000000 eV
 dipol+quadrupol energy correction           -0.000028 eV
 added-field ion interaction          0.012496 eV  (added to PSCEN)


 eigenvalues of (default mixing * dielectric matrix)
  average eigenvalue GAMMA=   1.4222
  2.3909  0.9379  0.9379

  free energy =  -0.333706911466E+03  energy without entropy=  -0.333706911466E+03


--------------------------------------------------------------------------------------------------------




--------------------------------------- Iteration     58(   5)  ---------------------------------------


    POTLOK:  cpu time    0.2682: real time    0.2698
    SETDIJ:  cpu time    0.0029: real time    0.0029
     EDDAV:  cpu time    2.5211: real time    2.5217
       DOS:  cpu time    0.0002: real time    0.0002
    --------------------------------------------
      LOOP:  cpu time    2.7925: real time    2.7947

 eigenvalue-minimisations  :   336
 total energy-change (2. order) :-0.1155295E-06  (-0.2108822E-06)
 number of electron     158.0000032 magnetization 
 augmentation part        7.5876512 magnetization 

 DIPCOR: dipole corrections for dipol
 direction  1 min pos    12, direction  2 min pos     8, direction  3 min pos    10,
 dipolmoment          -0.081087      0.054167      0.033651 electrons x Angstroem
 Tr[quadrupol]        76.265809

 energy correction for charged system         0.000000 eV
 dipol+quadrupol energy correction           -0.000028 eV
 added-field ion interaction          0.012504 eV  (added to PSCEN)


  free energy =  -0.333706911581E+03  energy without entropy=  -0.333706911581E+03


--------------------------------------------------------------------------------------------------------




------------------------ aborting loop because EDIFF is reached ----------------------------------------


    CHARGE:  cpu time    0.2013: real time    0.2014
    FORLOC:  cpu time    0.0751: real time    0.0751
    FORNL :  cpu time    0.4724: real time    0.4726
    STRESS:  cpu time    1.4197: real time    1.4199
    FORCOR:  cpu time    0.2488: real time    0.2499
    FORHAR:  cpu time    0.1220: real time    0.1220
    MIXING:  cpu time    0.0086: real time    0.0086
    OFIELD:  cpu time    0.0000: real time    0.0000

  Number of pair interactions contributing to vdW energy:   34166
  Edisp (eV):   -1.10829
    FORVDW:  cpu time    0.0045: real time    0.0045

  FORCE on cell =-STRESS in cart. coord.  units (eV):
  Direction    XX          YY          ZZ          XY          YZ          ZX
  --------------------------------------------------------------------------------------
  Alpha Z     9.58039     9.58039     9.58039
  Ewald    6111.55915   815.51158  7653.33932 -6825.79367  5542.32137 -2940.70362
  Hartree  7725.43333  3765.52654  8870.80087 -5527.73628  4684.46617 -3010.02036
  E(xc)    -634.83960  -641.18105  -632.75598    -5.20112     3.00456     1.82791
  Local  -15543.82042 -6395.17427-18183.62046 12278.97378-10188.12779  6003.80423
  n-local  -334.73774  -322.22128  -337.68213     4.77889     0.53061   -11.37283
  augment    46.97271    48.65009    45.84150     0.98003    -0.54014    -1.09819
  Kinetic  2617.01525  2716.32905  2571.48075    73.94788   -41.74317   -42.25587
  Fock        0.00000     0.00000     0.00000     0.00000     0.00000     0.00000
  vdW         0.00383     0.04490     0.30920     0.24267    -0.17635     0.34736
  -------------------------------------------------------------------------------------
  Total      -2.83308    -2.93404    -2.70655     0.19218    -0.26475     0.52864
  in kB      -0.39849    -0.41270    -0.38070     0.02703    -0.03724     0.07436
  external pressure =       -0.40 kB  Pullay stress =        0.00 kB



--------------------------------------------------------------------------------------------------------



  FREE ENERGIE OF THE ION-ELECTRON SYSTEM (eV)
  ---------------------------------------------------
  free  energy   TOTEN  =      -334.81520255 eV

  energy  without entropy=     -334.81520255  energy(sigma->0) =     -334.81520255
 
 d Force = 0.1249578E-03[ 0.888E-04, 0.161E-03]  d Energy = 0.1254334E-03-0.476E-06
 d Force =-0.5505633E-01[-0.549E-01,-0.552E-01]  d Ewald  =-0.5505636E-01 0.373E-07


--------------------------------------------------------------------------------------------------------


    POTLOK:  cpu time    0.2723: real time    0.2723


--------------------------------------------------------------------------------------------------------


 Conjugate gradient step on ions:
 trial-energy change:   -0.000125  1 .order   -0.000125   -0.000161   -0.000089
  (g-gl).g = 0.150E-03      g.g   = 0.143E-03  gl.gl    = 0.352E-03
 g(Force)  = 0.143E-03   g(Stress)= 0.000E+00 ortho     = 0.720E-05
 gamma     =   0.42505
 trial     =   1.10628
 opt step  =   2.46474  (harmonic =   2.46474) maximal distance =0.00188565
 next E    =  -334.815257   (d E  =  -0.00018)


--------------------------------------------------------------------------------------------------------


  
 reached required accuracy - stopping structural energy minimisation
     LOOP+:  cpu time   18.2483: real time   18.2663
    4ORBIT:  cpu time    0.0000: real time    0.0000

 total amount of memory used by VASP MPI-rank0   151342. kBytes
=======================================================================

   base      :      30000. kBytes
   nonlr-proj:       4567. kBytes
   fftplans  :      16852. kBytes
   grid      :      87897. kBytes
   one-center:        159. kBytes
   wavefun   :      11867. kBytes
 
  
  
 General timing and accounting informations for this job:
 ========================================================
  
                  Total CPU time used (sec):     1734.585
                            User time (sec):     1695.233
                          System time (sec):       39.352
                         Elapsed time (sec):     1738.615
  
                   Maximum memory used (kb):      381312.
                   Average memory used (kb):           0.
  
                          Minor page faults:       556974
                          Major page faults:            0
                 Voluntary context switches:         8098
