 vasp.5.4.4.18Apr17-6-g9f103f2a35 (build Jun 30 2017 19:19:18) complex          
  
 executed on         MareNostrum4 date 2022.04.13  16:55:21
 running on   48 total cores
 distrk:  each k-point on   48 cores,    1 groups
 distr:  one band on NCORES_PER_BAND=   1 cores,   48 groups


--------------------------------------------------------------------------------------------------------


 INCAR:
 POTCAR:    PAW_PBE Ag 02Apr2005                  

 ----------------------------------------------------------------------------- 
|                                                                             |
|           W    W    AA    RRRRR   N    N  II  N    N   GGGG   !!!           |
|           W    W   A  A   R    R  NN   N  II  NN   N  G    G  !!!           |
|           W    W  A    A  R    R  N N  N  II  N N  N  G       !!!           |
|           W WW W  AAAAAA  RRRRR   N  N N  II  N  N N  G  GGG   !            |
|           WW  WW  A    A  R   R   N   NN  II  N   NN  G    G                |
|           W    W  A    A  R    R  N    N  II  N    N   GGGG   !!!           |
|                                                                             |
|      For optimal performance we recommend to set                            |
|        NCORE= 4 - approx SQRT( number of cores)                             |
|      NCORE specifies how many cores store one orbital (NPAR=cpu/NCORE).     |
|      This setting can  greatly improve the performance of VASP for DFT.     |
|      The default,   NCORE=1            might be grossly inefficient         |
|      on modern multi-core architectures or massively parallel machines.     |
|      Do your own testing !!!!                                               |
|      Unfortunately you need to use the default for GW and RPA calculations. |
|      (for HF NCORE is supported but not extensively tested yet)             |
|                                                                             |
 ----------------------------------------------------------------------------- 

 POTCAR:    PAW_PBE Ag 02Apr2005                  
  local pseudopotential read in
  partial core-charges read in
  partial kinetic energy density read in
  atomic valenz-charges read in
  non local Contribution for L=           2  read in
    real space projection operators read in
  non local Contribution for L=           2  read in
    real space projection operators read in
  non local Contribution for L=           0  read in
    real space projection operators read in
  non local Contribution for L=           0  read in
    real space projection operators read in
  non local Contribution for L=           1  read in
    real space projection operators read in
  non local Contribution for L=           1  read in
    real space projection operators read in
    PAW grid and wavefunctions read in
 
   number of l-projection  operators is LMAX  =           6
   number of lm-projection operators is LMMAX =          18
 
 Optimization of the real space projectors (new method)

 maximal supplied QI-value         = 15.12
 optimisation between [QCUT,QGAM] = [ 10.73, 21.62] = [ 32.26,130.87] Ry 
 Optimized for a Real-space Cutoff    1.42 Angstroem

   l    n(q)    QCUT    max X(q) W(low)/X(q) W(high)/X(q)  e(spline) 
   2      8    10.734    53.897    0.46E-03    0.48E-03    0.17E-06
   2      8    10.734    52.416    0.47E-03    0.50E-03    0.17E-06
   0      9    10.734   122.045    0.16E-03    0.13E-03    0.44E-07
   0      9    10.734    73.629    0.16E-03    0.13E-03    0.43E-07
   1      9    10.734    15.255    0.66E-04    0.32E-03    0.15E-06
   1      9    10.734     9.562    0.55E-04    0.26E-03    0.12E-06
  PAW_PBE Ag 02Apr2005                  :
 energy of atom  1       EATOM=-1037.2675
 kinetic energy error for atom=    0.0055 (will be added to EATOM!!)
 
 
 POSCAR: Ag                                      
  positions in cartesian coordinates
  No initial velocities read in
 exchange correlation table for  LEXCH =        8
   RHO(1)=    0.500       N(1)  =     2000
   RHO(2)=  100.500       N(2)  =     4000
 


--------------------------------------------------------------------------------------------------------


 ion  position               nearest neighbor table
   1  0.000  0.000  0.000-  28 2.89   4 2.89   3 2.89  35 2.89  10 2.89   2 2.89  70 2.89  40 2.89
                            47 2.89
   2  1.000  0.167  0.000-  27 2.89   8 2.89   5 2.89  28 2.89   3 2.89   1 2.89  39 2.89  61 2.89
                            40 2.89
   3  0.167  0.167  0.000-  14 2.89  17 2.89   8 2.89   2 2.89   1 2.89   4 2.89  38 2.89  40 2.89
                            37 2.89
   4  0.167  0.000  0.000-  13 2.89  14 2.89   1 2.89  11 2.89  10 2.89   3 2.89  37 2.89  47 2.89
                            46 2.89
   5  0.000  0.333  0.000-   8 2.89  27 2.89   2 2.89  32 2.89   6 2.89   7 2.89  62 2.89  44 2.89
                            39 2.89
   6  0.000  0.500  0.000-  12 2.89   7 2.89   9 2.89  31 2.89   5 2.89  32 2.89  43 2.89  65 2.89
                            44 2.89
   7  0.167  0.500  0.000-   6 2.89  18 2.89  21 2.89  12 2.89   5 2.89   8 2.89  42 2.89  44 2.89
                            41 2.89
   8  0.167  0.333  0.000-   5 2.89   2 2.89   3 2.89  17 2.89  18 2.89   7 2.89  39 2.89  41 2.89
                            38 2.89
   9  0.000  0.667  0.000-  12 2.89  36 2.89  31 2.89  11 2.89   6 2.89  10 2.89  66 2.89  48 2.89
                            43 2.89
  10  1.000  0.833  0.000-  36 2.89  35 2.89   9 2.89  11 2.89   1 2.89   4 2.89  69 2.89  47 2.89
                            48 2.89
  11  0.167  0.833  0.000-  22 2.89   9 2.89  12 2.89  10 2.89   4 2.89  13 2.89  46 2.89  48 2.89
                            45 2.89
  12  0.167  0.667  0.000-   6 2.89   9 2.89  22 2.89  11 2.89   7 2.89  21 2.89  43 2.89  45 2.89
                            42 2.89
  13  0.333  0.000  0.000-   4 2.89  16 2.89  15 2.89  22 2.89  11 2.89  14 2.89  46 2.89  52 2.89
                            59 2.89
  14  0.333  0.167  0.000-   3 2.89  17 2.89   4 2.89  20 2.89  15 2.89  13 2.89  51 2.89  37 2.89
                            52 2.89
  15  0.500  0.167  0.000-  26 2.89  20 2.89  29 2.89  14 2.89  13 2.89  16 2.89  50 2.89  52 2.89
                            49 2.89
  16  0.500  0.000  0.000-  25 2.89  26 2.89  13 2.89  23 2.89  22 2.89  15 2.89  49 2.89  59 2.89
                            58 2.89
  17  0.333  0.333  0.000-  14 2.89   3 2.89   8 2.89  20 2.89  19 2.89  18 2.89  38 2.89  56 2.89
                            51 2.89
  18  0.333  0.500  0.000-   7 2.89  21 2.89  24 2.89  19 2.89   8 2.89  17 2.89  55 2.89  41 2.89
                            56 2.89
  19  0.500  0.500  0.000-  30 2.89  24 2.89  33 2.89  18 2.89  17 2.89  20 2.89  54 2.89  56 2.89
                            53 2.89
  20  0.500  0.333  0.000-  29 2.89  15 2.89  30 2.89  14 2.89  17 2.89  19 2.89  53 2.89  51 2.89
                            50 2.89
  21  0.333  0.667  0.000-  18 2.89  23 2.89   7 2.89  22 2.89  12 2.89  24 2.89  42 2.89  60 2.89
                            55 2.89
  22  0.333  0.833  0.000-  11 2.89  12 2.89  21 2.89  23 2.89  13 2.89  16 2.89  45 2.89  59 2.89
                            60 2.89
  23  0.500  0.833  0.000-  34 2.89  21 2.89  24 2.89  22 2.89  25 2.89  16 2.89  58 2.89  60 2.89
                            57 2.89
  24  0.500  0.667  0.000-  34 2.89  33 2.89  19 2.89  23 2.89  18 2.89  21 2.89  57 2.89  55 2.89
                            54 2.89
  25  0.667  0.000  0.000-  16 2.89  28 2.89  23 2.89  27 2.89  34 2.89  26 2.89  58 2.89  64 2.89
                            71 2.89
  26  0.667  0.167  0.000-  15 2.89  32 2.89  29 2.89  16 2.89  27 2.89  25 2.89  63 2.89  49 2.89
                            64 2.89
  27  0.833  0.167  0.000-   2 2.89   5 2.89  32 2.89  26 2.89  25 2.89  28 2.89  62 2.89  64 2.89
                            61 2.89
  28  0.833  0.000  0.000-   1 2.89   2 2.89  25 2.89  35 2.89  34 2.89  27 2.89  61 2.89  71 2.89
                            70 2.89
  29  0.667  0.333  0.000-  20 2.89  32 2.89  15 2.89  26 2.89  31 2.89  30 2.89  50 2.89  68 2.89
                            63 2.89
  30  0.667  0.500  0.000-  19 2.89  33 2.89  20 2.89  36 2.89  31 2.89  29 2.89  67 2.89  53 2.89
                            68 2.89
  31  0.833  0.500  0.000-   9 2.89  36 2.89  30 2.89   6 2.89  32 2.89  29 2.89  66 2.89  68 2.89
                            65 2.89
  32  0.833  0.333  0.000-  29 2.89  26 2.89  27 2.89   5 2.89  31 2.89   6 2.89  63 2.89  65 2.89
                            62 2.89
  33  0.667  0.667  0.000-  24 2.89  19 2.89  30 2.89  35 2.89  34 2.89  36 2.89  54 2.89  72 2.89
                            67 2.89
  34  0.667  0.833  0.000-  24 2.89  23 2.89  33 2.89  35 2.89  25 2.89  28 2.89  57 2.89  71 2.89
                            72 2.89
  35  0.833  0.833  0.000-  10 2.89  33 2.89  36 2.89  34 2.89   1 2.89  28 2.89  70 2.89  72 2.89
                            69 2.89
  36  0.833  0.667  0.000-  10 2.89   9 2.89  31 2.89  35 2.89  30 2.89  33 2.89  69 2.89  67 2.89
                            66 2.89
  37  0.222  0.111  0.107-  75 2.88  74 2.88  76 2.88  52 2.89  51 2.89  38 2.89  40 2.89  46 2.89
                            47 2.89  14 2.89   4 2.89   3 2.89
  38  0.222  0.278  0.107-  76 2.88  73 2.88  79 2.88  51 2.89  37 2.89  56 2.89  40 2.89  39 2.89
                            41 2.89   3 2.89  17 2.89   8 2.89
  39  0.056  0.278  0.107-  73 2.88 100 2.88  78 2.88  62 2.89  61 2.89  40 2.89  38 2.89  44 2.89
                            41 2.89   2 2.89   8 2.89   5 2.89
  40  0.056  0.111  0.107-  74 2.88  99 2.88  73 2.88  61 2.89  39 2.89  70 2.89  38 2.89  37 2.89
                            47 2.89   1 2.89   3 2.89   2 2.89
  41  0.222  0.444  0.107-  79 2.88  78 2.88  80 2.88  56 2.89  55 2.89  42 2.89  44 2.89  39 2.89
                            38 2.89  18 2.89   8 2.89   7 2.89
  42  0.222  0.611  0.107-  80 2.88  77 2.88  83 2.88  55 2.89  41 2.89  60 2.89  44 2.89  43 2.89
                            45 2.89   7 2.89  21 2.89  12 2.89
  43  0.056  0.611  0.107-  77 2.88 104 2.88  82 2.88  66 2.89  65 2.89  44 2.89  42 2.89  48 2.89
                            45 2.89   6 2.89  12 2.89   9 2.89
  44  0.056  0.444  0.107-  78 2.88 103 2.88  77 2.88  65 2.89  43 2.89  62 2.89  42 2.89  41 2.89
                            39 2.89   5 2.89   7 2.89   6 2.89
  45  0.222  0.778  0.107-  83 2.88  82 2.88  84 2.88  60 2.89  59 2.89  46 2.89  48 2.89  42 2.89
                            43 2.89  22 2.89  12 2.89  11 2.89
  46  0.222  0.944  0.107-  84 2.88  81 2.88  75 2.88  59 2.89  45 2.89  52 2.89  48 2.89  47 2.89
                            37 2.89  13 2.89  11 2.89   4 2.89
  47  0.056  0.944  0.107-  81 2.88 108 2.88  74 2.88  70 2.89  69 2.89  48 2.89  46 2.89  40 2.89
                            37 2.89  10 2.89   4 2.89   1 2.89
  48  0.056  0.778  0.107-  82 2.88 107 2.88  81 2.88  69 2.89  47 2.89  66 2.89  46 2.89  45 2.89
                            43 2.89  11 2.89   9 2.89  10 2.89
  49  0.556  0.111  0.107-  87 2.88  86 2.88  88 2.88  64 2.89  63 2.89  50 2.89  52 2.89  58 2.89
                            59 2.89  26 2.89  16 2.89  15 2.89
  50  0.556  0.278  0.107-  88 2.88  85 2.88  91 2.88  63 2.89  49 2.89  68 2.89  52 2.89  51 2.89
                            53 2.89  15 2.89  29 2.89  20 2.89
  51  0.389  0.278  0.107-  85 2.88  76 2.88  90 2.88  38 2.89  37 2.89  52 2.89  50 2.89  53 2.89
                            56 2.89  14 2.89  20 2.89  17 2.89
  52  0.389  0.111  0.107-  86 2.88  75 2.88  85 2.88  37 2.89  51 2.89  46 2.89  50 2.89  49 2.89
                            59 2.89  13 2.89  15 2.89  14 2.89
  53  0.556  0.444  0.107-  91 2.88  90 2.88  92 2.88  68 2.89  67 2.89  54 2.89  56 2.89  51 2.89
                            50 2.89  30 2.89  20 2.89  19 2.89
  54  0.556  0.611  0.107-  92 2.88  89 2.88  95 2.88  67 2.89  53 2.89  72 2.89  56 2.89  55 2.89
                            57 2.89  19 2.89  33 2.89  24 2.89
  55  0.389  0.611  0.107-  89 2.88  80 2.88  94 2.88  42 2.89  41 2.89  56 2.89  54 2.89  60 2.89
                            57 2.89  18 2.89  24 2.89  21 2.89
  56  0.389  0.444  0.107-  90 2.88  79 2.88  89 2.88  41 2.89  55 2.89  38 2.89  54 2.89  53 2.89
                            51 2.89  17 2.89  19 2.89  18 2.89
  57  0.556  0.778  0.107-  95 2.88  94 2.88  96 2.88  72 2.89  71 2.89  58 2.89  60 2.89  54 2.89
                            55 2.89  34 2.89  24 2.89  23 2.89
  58  0.556  0.944  0.107-  96 2.88  93 2.88  87 2.88  71 2.89  57 2.89  64 2.89  60 2.89  59 2.89
                            49 2.89  25 2.89  23 2.89  16 2.89
  59  0.389  0.944  0.107-  93 2.88  84 2.88  86 2.88  46 2.89  45 2.89  60 2.89  58 2.89  52 2.89
                            49 2.89  22 2.89  16 2.89  13 2.89
  60  0.389  0.778  0.107-  94 2.88  83 2.88  93 2.88  45 2.89  59 2.89  42 2.89  58 2.89  57 2.89
                            55 2.89  23 2.89  21 2.89  22 2.89
  61  0.889  0.111  0.107-  99 2.88  98 2.88 100 2.88  40 2.89  39 2.89  62 2.89  64 2.89  70 2.89
                            71 2.89   2 2.89  28 2.89  27 2.89
  62  0.889  0.278  0.107- 100 2.88  97 2.88 103 2.88  39 2.89  61 2.89  44 2.89  64 2.89  63 2.89
                            65 2.89  27 2.89   5 2.89  32 2.89
  63  0.722  0.278  0.107-  97 2.88  88 2.88 102 2.88  50 2.89  49 2.89  64 2.89  62 2.89  65 2.89
                            68 2.89  26 2.89  32 2.89  29 2.89
  64  0.722  0.111  0.107-  98 2.88  87 2.88  97 2.88  49 2.89  63 2.89  58 2.89  62 2.89  61 2.89
                            71 2.89  25 2.89  27 2.89  26 2.89
  65  0.889  0.444  0.107- 103 2.88 102 2.88 104 2.88  44 2.89  43 2.89  66 2.89  68 2.89  63 2.89
                            62 2.89   6 2.89  32 2.89  31 2.89
  66  0.889  0.611  0.107- 104 2.88 101 2.88 107 2.88  43 2.89  65 2.89  48 2.89  68 2.89  67 2.89
                            69 2.89  31 2.89   9 2.89  36 2.89
  67  0.722  0.611  0.107- 101 2.88  92 2.88 106 2.88  54 2.89  53 2.89  68 2.89  66 2.89  72 2.89
                            69 2.89  30 2.89  36 2.89  33 2.89
  68  0.722  0.444  0.107- 102 2.88  91 2.88 101 2.88  53 2.89  67 2.89  50 2.89  66 2.89  65 2.89
                            63 2.89  29 2.89  31 2.89  30 2.89
  69  0.889  0.778  0.107- 107 2.88 106 2.88 108 2.88  48 2.89  47 2.89  70 2.89  72 2.89  66 2.89
                            67 2.89  10 2.89  36 2.89  35 2.89
  70  0.889  0.944  0.107- 108 2.88 105 2.88  99 2.88  47 2.89  69 2.89  40 2.89  72 2.89  71 2.89
                            61 2.89   1 2.89  35 2.89  28 2.89
  71  0.722  0.944  0.107- 105 2.88  96 2.88  98 2.88  58 2.89  57 2.89  72 2.89  70 2.89  64 2.89
                            61 2.89  34 2.89  28 2.89  25 2.89
  72  0.722  0.778  0.107- 106 2.88  95 2.88 105 2.88  57 2.89  71 2.89  54 2.89  70 2.89  69 2.89
                            67 2.89  35 2.89  33 2.89  34 2.89
  73  0.111  0.222  0.213-  39 2.88  38 2.88  40 2.88  76 2.89  79 2.89  78 2.89 100 2.89  74 2.89
                            99 2.89 116 2.97 110 2.97 111 2.97
  74  0.111  0.056  0.213-  40 2.88  37 2.88  47 2.88  75 2.89  81 2.89  76 2.89 108 2.89  99 2.89
                            73 2.89 111 2.97 109 2.97 112 2.97
  75  0.278  0.056  0.213-  37 2.88  52 2.88  46 2.88  74 2.89  81 2.89  84 2.89  86 2.89  85 2.89
                            76 2.89 112 2.97 122 2.97 121 2.97
  76  0.278  0.222  0.213-  38 2.88  51 2.88  37 2.88  73 2.89  79 2.89  74 2.89  90 2.89  85 2.89
                            75 2.89 125 2.97 111 2.97 122 2.97
  77  0.111  0.556  0.213-  43 2.88  42 2.88  44 2.88  80 2.89  83 2.89  82 2.89 104 2.89  78 2.89
                           103 2.89 120 2.97 114 2.97 115 2.97
  78  0.111  0.389  0.213-  44 2.88  41 2.88  39 2.88  79 2.89  73 2.89  80 2.89 100 2.89 103 2.89
                            77 2.89 115 2.97 113 2.97 116 2.97
  79  0.278  0.389  0.213-  41 2.88  56 2.88  38 2.88  78 2.89  73 2.89  76 2.89  90 2.89  80 2.89
                            89 2.89 116 2.97 126 2.97 125 2.97
  80  0.278  0.556  0.213-  42 2.88  55 2.88  41 2.88  77 2.89  83 2.89  78 2.89  94 2.89  89 2.89
                            79 2.89 129 2.97 115 2.97 126 2.97
  81  0.111  0.889  0.213-  47 2.88  46 2.88  48 2.88  84 2.89  75 2.89  74 2.89 108 2.89  82 2.89
                           107 2.89 112 2.97 118 2.97 119 2.97
  82  0.111  0.722  0.213-  48 2.88  45 2.88  43 2.88  83 2.89  77 2.89  84 2.89 104 2.89 107 2.89
                            81 2.89 119 2.97 117 2.97 120 2.97
  83  0.278  0.722  0.213-  45 2.88  60 2.88  42 2.88  82 2.89  77 2.89  80 2.89  94 2.89  93 2.89
                            84 2.89 120 2.97 130 2.97 129 2.97
  84  0.278  0.889  0.213-  46 2.88  59 2.88  45 2.88  81 2.89  75 2.89  82 2.89  86 2.89  93 2.89
                            83 2.89 121 2.97 119 2.97 130 2.97
  85  0.444  0.222  0.213-  51 2.88  50 2.88  52 2.88  88 2.89  91 2.89  90 2.89  76 2.89  75 2.89
                            86 2.89 128 2.97 122 2.97 123 2.97
  86  0.444  0.056  0.213-  52 2.88  49 2.88  59 2.88  87 2.89  93 2.89  88 2.89  84 2.89  75 2.89
                            85 2.89 123 2.97 121 2.97 124 2.97
  87  0.611  0.056  0.213-  49 2.88  64 2.88  58 2.88  86 2.89  93 2.89  96 2.89  98 2.89  97 2.89
                            88 2.89 124 2.97 134 2.97 133 2.97
  88  0.611  0.222  0.213-  50 2.88  63 2.88  49 2.88  85 2.89  91 2.89  86 2.89 102 2.89  97 2.89
                            87 2.89 137 2.97 123 2.97 134 2.97
  89  0.444  0.556  0.213-  55 2.88  54 2.88  56 2.88  92 2.89  95 2.89  94 2.89  80 2.89  90 2.89
                            79 2.89 132 2.97 126 2.97 127 2.97
  90  0.444  0.389  0.213-  56 2.88  53 2.88  51 2.88  91 2.89  85 2.89  92 2.89  76 2.89  79 2.89
                            89 2.89 127 2.97 125 2.97 128 2.97
  91  0.611  0.389  0.213-  53 2.88  68 2.88  50 2.88  90 2.89  85 2.89  88 2.89 102 2.89  92 2.89
                           101 2.89 128 2.97 138 2.97 137 2.97
  92  0.611  0.556  0.213-  54 2.88  67 2.88  53 2.88  89 2.89  95 2.89  90 2.89 106 2.89 101 2.89
                            91 2.89 141 2.97 127 2.97 138 2.97
  93  0.444  0.889  0.213-  59 2.88  58 2.88  60 2.88  96 2.89  87 2.89  86 2.89  84 2.89  83 2.89
                            94 2.89 124 2.97 130 2.97 131 2.97
  94  0.444  0.722  0.213-  60 2.88  57 2.88  55 2.88  95 2.89  89 2.89  96 2.89  80 2.89  83 2.89
                            93 2.89 131 2.97 129 2.97 132 2.97
  95  0.611  0.722  0.213-  57 2.88  72 2.88  54 2.88  94 2.89  89 2.89  92 2.89 106 2.89 105 2.89
                            96 2.89 132 2.97 142 2.97 141 2.97
  96  0.611  0.889  0.213-  58 2.88  71 2.88  57 2.88  93 2.89  87 2.89  94 2.89  98 2.89 105 2.89
                            95 2.89 133 2.97 131 2.97 142 2.97
  97  0.778  0.222  0.213-  63 2.88  62 2.88  64 2.88 100 2.89 103 2.89 102 2.89  88 2.89  87 2.89
                            98 2.89 140 2.97 134 2.97 135 2.97
  98  0.778  0.056  0.213-  64 2.88  61 2.88  71 2.88  99 2.89 105 2.89 100 2.89  96 2.89  87 2.89
                            97 2.89 135 2.97 133 2.97 136 2.97
  99  0.944  0.056  0.213-  61 2.88  40 2.88  70 2.88  98 2.89 105 2.89 108 2.89  74 2.89  73 2.89
                           100 2.89 136 2.97 110 2.97 109 2.97
 100  0.944  0.222  0.213-  62 2.88  39 2.88  61 2.88  97 2.89 103 2.89  98 2.89  78 2.89  73 2.89
                            99 2.89 113 2.97 135 2.97 110 2.97
 101  0.778  0.556  0.213-  67 2.88  66 2.88  68 2.88 104 2.89 107 2.89 106 2.89  92 2.89 102 2.89
                            91 2.89 144 2.97 138 2.97 139 2.97
 102  0.778  0.389  0.213-  68 2.88  65 2.88  63 2.88 103 2.89  97 2.89 104 2.89  88 2.89  91 2.89
                           101 2.89 139 2.97 137 2.97 140 2.97
 103  0.944  0.389  0.213-  65 2.88  44 2.88  62 2.88 102 2.89  97 2.89 100 2.89  78 2.89 104 2.89
                            77 2.89 140 2.97 114 2.97 113 2.97
 104  0.944  0.556  0.213-  66 2.88  43 2.88  65 2.88 101 2.89 107 2.89 102 2.89  82 2.89  77 2.89
                           103 2.89 117 2.97 139 2.97 114 2.97
 105  0.778  0.889  0.213-  71 2.88  70 2.88  72 2.88 108 2.89  99 2.89  98 2.89  96 2.89  95 2.89
                           106 2.89 136 2.97 142 2.97 143 2.97
 106  0.778  0.722  0.213-  72 2.88  69 2.88  67 2.88 107 2.89 101 2.89 108 2.89  92 2.89  95 2.89
                           105 2.89 143 2.97 141 2.97 144 2.97
 107  0.944  0.722  0.213-  69 2.88  48 2.88  66 2.88 106 2.89 101 2.89 104 2.89  82 2.89  81 2.89
                           108 2.89 144 2.97 118 2.97 117 2.97
 108  0.944  0.889  0.213-  70 2.88  47 2.88  69 2.88 105 2.89  99 2.89 106 2.89  74 2.89  81 2.89
                           107 2.89 109 2.97 143 2.97 118 2.97
 109  1.000  0.000  0.325- 112 2.89 111 2.89 110 2.89 136 2.89 118 2.89 143 2.89 108 2.97  74 2.97
                            99 2.97
 110  1.000  0.167  0.325- 135 2.89 136 2.89 109 2.89 111 2.89 113 2.89 116 2.89  99 2.97  73 2.97
                           100 2.97
 111  0.167  0.167  0.325- 122 2.89 109 2.89 112 2.89 110 2.89 125 2.89 116 2.89  76 2.97  74 2.97
                            73 2.97
 112  0.167  0.000  0.325- 109 2.89 122 2.89 111 2.89 121 2.89 118 2.89 119 2.89  81 2.97  75 2.97
                            74 2.97
 113  1.000  0.333  0.325- 116 2.89 115 2.89 114 2.89 140 2.89 110 2.89 135 2.89 100 2.97  78 2.97
                           103 2.97
 114  1.000  0.500  0.325- 139 2.89 140 2.89 113 2.89 115 2.89 117 2.89 120 2.89 103 2.97  77 2.97
                           104 2.97
 115  0.167  0.500  0.325- 126 2.89 113 2.89 116 2.89 114 2.89 129 2.89 120 2.89  80 2.97  78 2.97
                            77 2.97
 116  0.167  0.333  0.325- 113 2.89 126 2.89 115 2.89 125 2.89 110 2.89 111 2.89  73 2.97  79 2.97
                            78 2.97
 117  1.000  0.667  0.325- 120 2.89 119 2.89 118 2.89 144 2.89 114 2.89 139 2.89 104 2.97  82 2.97
                           107 2.97
 118  1.000  0.833  0.325- 143 2.89 144 2.89 117 2.89 119 2.89 109 2.89 112 2.89 107 2.97  81 2.97
                           108 2.97
 119  0.167  0.833  0.325- 130 2.89 117 2.89 120 2.89 118 2.89 121 2.89 112 2.89  84 2.97  82 2.97
                            81 2.97
 120  0.167  0.667  0.325- 117 2.89 130 2.89 119 2.89 129 2.89 114 2.89 115 2.89  77 2.97  83 2.97
                            82 2.97
 121  0.333  0.000  0.325- 124 2.89 123 2.89 122 2.89 112 2.89 119 2.89 130 2.89  84 2.97  86 2.97
                            75 2.97
 122  0.333  0.167  0.325- 111 2.89 112 2.89 121 2.89 123 2.89 128 2.89 125 2.89  75 2.97  85 2.97
                            76 2.97
 123  0.500  0.167  0.325- 134 2.89 124 2.89 121 2.89 122 2.89 137 2.89 128 2.89  88 2.97  86 2.97
                            85 2.97
 124  0.500  0.000  0.325- 121 2.89 123 2.89 134 2.89 133 2.89 130 2.89 131 2.89  93 2.97  87 2.97
                            86 2.97
 125  0.333  0.333  0.325- 128 2.89 127 2.89 126 2.89 116 2.89 111 2.89 122 2.89  76 2.97  90 2.97
                            79 2.97
 126  0.333  0.500  0.325- 115 2.89 116 2.89 125 2.89 127 2.89 132 2.89 129 2.89  79 2.97  89 2.97
                            80 2.97
 127  0.500  0.500  0.325- 138 2.89 128 2.89 125 2.89 126 2.89 141 2.89 132 2.89  92 2.97  90 2.97
                            89 2.97
 128  0.500  0.333  0.325- 125 2.89 127 2.89 138 2.89 137 2.89 122 2.89 123 2.89  85 2.97  91 2.97
                            90 2.97
 129  0.333  0.667  0.325- 132 2.89 131 2.89 130 2.89 120 2.89 115 2.89 126 2.89  80 2.97  94 2.97
                            83 2.97
 130  0.333  0.833  0.325- 119 2.89 120 2.89 129 2.89 131 2.89 124 2.89 121 2.89  83 2.97  93 2.97
                            84 2.97
 131  0.500  0.833  0.325- 142 2.89 132 2.89 129 2.89 130 2.89 133 2.89 124 2.89  96 2.97  94 2.97
                            93 2.97
 132  0.500  0.667  0.325- 129 2.89 131 2.89 142 2.89 141 2.89 126 2.89 127 2.89  89 2.97  95 2.97
                            94 2.97
 133  0.667  0.000  0.325- 136 2.89 135 2.89 134 2.89 124 2.89 142 2.89 131 2.89  96 2.97  98 2.97
                            87 2.97
 134  0.667  0.167  0.325- 123 2.89 124 2.89 133 2.89 135 2.89 137 2.89 140 2.89  87 2.97  97 2.97
                            88 2.97
 135  0.833  0.167  0.325- 110 2.89 133 2.89 136 2.89 134 2.89 113 2.89 140 2.89 100 2.97  98 2.97
                            97 2.97
 136  0.833  0.000  0.325- 133 2.89 110 2.89 135 2.89 109 2.89 142 2.89 143 2.89 105 2.97  99 2.97
                            98 2.97
 137  0.667  0.333  0.325- 140 2.89 139 2.89 138 2.89 128 2.89 123 2.89 134 2.89  88 2.97 102 2.97
                            91 2.97
 138  0.667  0.500  0.325- 127 2.89 128 2.89 137 2.89 139 2.89 141 2.89 144 2.89  91 2.97 101 2.97
                            92 2.97
 139  0.833  0.500  0.325- 114 2.89 137 2.89 140 2.89 138 2.89 117 2.89 144 2.89 104 2.97 102 2.97
                           101 2.97
 140  0.833  0.333  0.325- 137 2.89 114 2.89 139 2.89 113 2.89 134 2.89 135 2.89  97 2.97 103 2.97
                           102 2.97
 141  0.667  0.667  0.325- 144 2.89 143 2.89 142 2.89 132 2.89 127 2.89 138 2.89  92 2.97 106 2.97
                            95 2.97
 142  0.667  0.833  0.325- 131 2.89 132 2.89 141 2.89 143 2.89 133 2.89 136 2.89  95 2.97 105 2.97
                            96 2.97
 143  0.833  0.833  0.325- 118 2.89 141 2.89 144 2.89 142 2.89 109 2.89 136 2.89 108 2.97 106 2.97
                           105 2.97
 144  0.833  0.667  0.325- 141 2.89 118 2.89 143 2.89 117 2.89 138 2.89 139 2.89 101 2.97 107 2.97
                           106 2.97
 
  LATTYP: Found a hexagonal cell.
 ALAT       =    17.3505005836
 C/A-ratio  =     1.2727759369
  
  Lattice vectors:
  
 A1 = (  17.3505005835,   0.0000000000,   0.0000000000)
 A2 = (  -8.6752502919,  15.0259742739,   0.0000000000)
 A3 = (   0.0000000000,   0.0000000000,  22.0832996368)


Analysis of symmetry for initial positions (statically):
=====================================================================
 Subroutine PRICEL returns following result:
 
  LATTYP: Found a hexagonal cell.
 ALAT       =     2.8917500973
 C/A-ratio  =     7.6366556217
  
  Lattice vectors:
  
 A1 = (   2.8917500972,   0.0000000000,   0.0000000000)
 A2 = (  -1.4458750486,   2.5043290456,   0.0000000000)
 A3 = (   0.0000000000,   0.0000000000,  22.0832996368)
 
  36 primitive cells build up your supercell.
 

 Routine SETGRP: Setting up the symmetry group for a 
 hexagonal supercell.


 Subroutine GETGRP returns: Found  4 space group operations
 (whereof  4 operations were pure point group operations)
 out of a pool of 24 trial point group operations.


The static configuration has the point symmetry C_2v.


Analysis of symmetry for dynamics (positions and initial velocities):
=====================================================================
 Subroutine PRICEL returns following result:
 
  LATTYP: Found a hexagonal cell.
 ALAT       =     2.8917500973
 C/A-ratio  =     7.6366556217
  
  Lattice vectors:
  
 A1 = (   2.8917500972,   0.0000000000,   0.0000000000)
 A2 = (  -1.4458750486,   2.5043290456,   0.0000000000)
 A3 = (   0.0000000000,   0.0000000000,  22.0832996368)
 
  36 primitive cells build up your supercell.
 

 Routine SETGRP: Setting up the symmetry group for a 
 hexagonal supercell.


 Subroutine GETGRP returns: Found  4 space group operations
 (whereof  4 operations were pure point group operations)
 out of a pool of 24 trial point group operations.


The dynamic configuration has the point symmetry C_2v.


Analysis of constrained symmetry for selective dynamics:
=====================================================================
 Subroutine PRICEL returns following result:
 
  LATTYP: Found a hexagonal cell.
 ALAT       =     2.8917500973
 C/A-ratio  =     7.6366556217
  
  Lattice vectors:
  
 A1 = (   2.8917500972,   0.0000000000,   0.0000000000)
 A2 = (  -1.4458750486,   2.5043290456,   0.0000000000)
 A3 = (   0.0000000000,   0.0000000000,  22.0832996368)
 
  36 primitive cells build up your supercell.
 

 Routine SETGRP: Setting up the symmetry group for a 
 hexagonal supercell.


 Subroutine GETGRP returns: Found  2 space group operations
 (whereof  2 operations were pure point group operations)
 out of a pool of 24 trial point group operations.


The constrained configuration has the point symmetry C_1h.


 Subroutine INISYM returns: Found  2 space group operations
 (whereof  2 operations are pure point group operations),
 and found    36 'primitive' translations

 
 
 KPOINTS: K-POINTS                                

Automatic generation of k-mesh.
Space group operators:
 irot       det(A)        alpha          n_x          n_y          n_z        tau_x        tau_y        tau_z
    1     1.000000     0.000000     1.000000     0.000000     0.000000     0.000000     0.000000     0.000000
    2    -1.000000   180.000000     0.500000    -0.866025     0.000000     0.000000     0.000000     0.000000
 
 Subroutine IBZKPT returns following result:
 ===========================================
 
 Found      4 irreducible k-points:
 
 Following reciprocal coordinates:
            Coordinates               Weight
  0.000000  0.000000  0.000000      1.000000
  0.333333  0.000000  0.000000      2.000000
  0.000000  0.333333  0.000000      4.000000
  0.333333  0.333333  0.000000      2.000000
 
 Following cartesian coordinates:
            Coordinates               Weight
  0.000000  0.000000  0.000000      1.000000
  0.019212  0.011092  0.000000      2.000000
  0.000000  0.022184  0.000000      4.000000
  0.019212  0.033276  0.000000      2.000000
 


--------------------------------------------------------------------------------------------------------




 Dimension of arrays:
   k-points           NKPTS =      4   k-points in BZ     NKDIM =      4   number of bands    NBANDS=    960
   number of dos      NEDOS =    301   number of ions     NIONS =    144
   non local maximal  LDIM  =      6   non local SUM 2l+1 LMDIM =     18
   total plane-waves  NPLWV = 972000
   max r-space proj   IRMAX =   2084   max aug-charges    IRDMAX=   8500
   dimension x,y,z NGX =    90 NGY =   90 NGZ =  120
   dimension x,y,z NGXF=   180 NGYF=  180 NGZF=  240
   support grid    NGXF=   180 NGYF=  180 NGZF=  240
   ions per type =             144
   NGX,Y,Z   is equivalent  to a cutoff of   8.62,  8.62,  9.03 a.u.
   NGXF,Y,Z  is equivalent  to a cutoff of  17.25, 17.25, 18.07 a.u.

 SYSTEM =  Birch-Murnaghan                         
 POSCAR =  Ag                                      

 Startparameter for this run:
   NWRITE =      0    write-flag & timer
   PREC   = normal    normal or accurate (medium, high low for compatibility)
   ISTART =      0    job   : 0-new  1-cont  2-samecut
   ICHARG =      2    charge: 1-file 2-atom 10-const
   ISPIN  =      1    spin polarized calculation?
   LNONCOLLINEAR =      F non collinear calculations
   LSORBIT =      F    spin-orbit coupling
   INIWAV =      1    electr: 0-lowe 1-rand  2-diag
   LASPH  =      F    aspherical Exc in radial PAW
   METAGGA=      F    non-selfconsistent MetaGGA calc.

 Electronic Relaxation 1
   ENCUT  =  450.0 eV  33.07 Ry    5.75 a.u.  30.01 30.01 38.20*2*pi/ulx,y,z
   ENINI  =  450.0     initial cutoff
   ENAUG  =  412.5 eV  augmentation charge cutoff
   NELM   =     60;   NELMIN=  5; NELMDL= -7     # of ELM steps 
   EDIFF  = 0.1E-05   stopping-criterion for ELM
   LREAL  =      T    real-space projection
   NLSPLINE    = F    spline interpolate recip. space projectors
   LCOMPAT=      F    compatible to vasp.4.4
   GGA_COMPAT  = T    GGA compatible to vasp.4.4-vasp.4.6
   LMAXPAW     = -100 max onsite density
   LMAXMIX     =    2 max onsite mixed and CHGCAR
   VOSKOWN=      0    Vosko Wilk Nusair interpolation
   ROPT   =   -0.00050
 Ionic relaxation
   EDIFFG = -.5E-02   stopping-criterion for IOM
   NSW    =    100    number of steps for IOM
   NBLOCK =      1;   KBLOCK =    100    inner block; outer block 
   IBRION =      1    ionic relax: 0-MD 1-quasi-New 2-CG
   NFREE  =      0    steps in history (QN), initial steepest desc. (CG)
   ISIF   =      2    stress and relaxation
   IWAVPR =     11    prediction:  0-non 1-charg 2-wave 3-comb
   ISYM   =      2    0-nonsym 1-usesym 2-fastsym
   LCORR  =      T    Harris-Foulkes like correction to forces

   POTIM  = 0.2500    time-step for ionic-motion
   TEIN   =    0.0    initial temperature
   TEBEG  =    0.0;   TEEND  =   0.0 temperature during run
   SMASS  =  -3.00    Nose mass-parameter (am)
   estimated Nose-frequenzy (Omega)   =  0.10E-29 period in steps =****** mass=  -0.688E-26a.u.
   SCALEE = 1.0000    scale energy and forces
   NPACO  =    256;   APACO  = 16.0  distance and # of slots for P.C.
   PSTRESS=    0.0 pullay stress

  Mass of Ions in am
   POMASS = 107.87
  Ionic Valenz
   ZVAL   =  11.00
  Atomic Wigner-Seitz radii
   RWIGS  =  -1.00
  virtual crystal weights 
   VCA    =   1.00
   NELECT =    1584.0000    total number of electrons
   NUPDOWN=      -1.0000    fix difference up-down

 DOS related values:
   EMIN   =  10.00;   EMAX   =-10.00  energy-range for DOS
   EFERMI =   0.00
   ISMEAR =     0;   SIGMA  =   0.03  broadening in eV -4-tet -1-fermi 0-gaus

 Electronic relaxation 2 (details)
   IALGO  =     68    algorithm
   LDIAG  =      T    sub-space diagonalisation (order eigenvalues)
   LSUBROT=      F    optimize rotation matrix (better conditioning)
   TURBO    =      0    0=normal 1=particle mesh
   IRESTART =      0    0=no restart 2=restart with 2 vectors
   NREBOOT  =      0    no. of reboots
   NMIN     =      0    reboot dimension
   EREF     =   0.00    reference energy to select bands
   IMIX   =      4    mixing-type and parameters
     AMIX     =   0.40;   BMIX     =  1.00
     AMIX_MAG =   1.60;   BMIX_MAG =  1.00
     AMIN     =   0.10
     WC   =   100.;   INIMIX=   1;  MIXPRE=   1;  MAXMIX= -45

 Intra band minimization:
   WEIMIN = 0.0010     energy-eigenvalue tresh-hold
   EBREAK =  0.26E-09  absolut break condition
   DEPER  =   0.30     relativ break condition  

   TIME   =   0.40     timestep for ELM

  volume/ion in A,a.u.               =      39.98       269.81
  Fermi-wavevector in a.u.,A,eV,Ry     =   1.064765  2.012114 15.425253  1.133724
  Thomas-Fermi vector in A             =   2.200294
 
 Write flags
   LWAVE        =      F    write WAVECAR
   LDOWNSAMPLE  =      F    k-point downsampling of WAVECAR
   LCHARG       =      F    write CHGCAR
   LVTOT        =      F    write LOCPOT, total local potential
   LVHAR        =      F    write LOCPOT, Hartree potential only
   LELF         =      F    write electronic localiz. function (ELF)
   LORBIT       =      0    0 simple, 1 ext, 2 COOP (PROOUT), +10 PAW based schemes


 Dipole corrections
   LMONO  =      F    monopole corrections only (constant potential shift)
   LDIPOL =      T    correct potential (dipole corrections)
   IDIPOL =      3    1-x, 2-y, 3-z, 4-all directions 
   EPSILON=  1.0000000 bulk dielectric constant

 Exchange correlation treatment:
   GGA     =    PE    GGA type
   LEXCH   =     8    internal setting for exchange type
   VOSKOWN=      0    Vosko Wilk Nusair interpolation
   LHFCALC =     F    Hartree Fock is set to
   LHFONE  =     F    Hartree Fock one center treatment
   AEXX    =    0.0000 exact exchange contribution

 Linear response parameters
   LEPSILON=     F    determine dielectric tensor
   LRPA    =     F    only Hartree local field effects (RPA)
   LNABLA  =     F    use nabla operator in PAW spheres
   LVEL    =     F    velocity operator in full k-point grid
   LINTERFAST=   F  fast interpolation
   KINTER  =     0    interpolate to denser k-point grid
   CSHIFT  =0.1000    complex shift for real part using Kramers Kronig
   OMEGAMAX=  -1.0    maximum frequency
   DEG_THRESHOLD= 0.2000000E-02 threshold for treating states as degnerate
   RTIME   =   -0.100 relaxation time in fs
  (WPLASMAI=    0.000 imaginary part of plasma frequency in eV, 0.658/RTIME)
   DFIELD  = 0.0000000 0.0000000 0.0000000 field for delta impulse in time
 
 Orbital magnetization related:
   ORBITALMAG=     F  switch on orbital magnetization
   LCHIMAG   =     F  perturbation theory with respect to B field
   DQ        =  0.001000  dq finite difference perturbation B field
   LLRAUG    =     F  two centre corrections for induced B field



--------------------------------------------------------------------------------------------------------


 quasi-Newton-method for relaxation of ions
   using selective dynamics as specified on POSCAR
   WARNING: If single coordinates had been selected the selection of coordinates
            is made according to the corresponding   d i r e c t   coordinates!
            Don't support selection of single cartesian coordinates -- sorry ...
  !
 charge density and potential will be updated during run
 non-spin polarized calculation
 RMM-DIIS sequential band-by-band and
  variant of blocked Davidson during initial phase
 perform sub-space diagonalisation
    before iterative eigenvector-optimisation
 modified Broyden-mixing scheme, WC =      100.0
 initial mixing is a Kerker type mixing with AMIX =  0.4000 and BMIX =      1.0000
 Hartree-type preconditioning will be used
 using additional bands          168
 real space projection scheme for non local part
 use partial core corrections
 calculate Harris-corrections to forces 
   (improved forces if not selfconsistent)
 use gradient corrections 
 use of overlap-Matrix (Vanderbilt PP)
 Gauss-broadening in eV      SIGMA  =   0.03


--------------------------------------------------------------------------------------------------------


  energy-cutoff  :      450.00
  volume of cell :     5757.30
      direct lattice vectors                 reciprocal lattice vectors
    17.350500584  0.000000000  0.000000000     0.057635225  0.033275713  0.000000000
    -8.675250292 15.025974274  0.000000000     0.000000000  0.066551425  0.000000000
     0.000000000  0.000000000 22.083299637     0.000000000  0.000000000  0.045283088

  length of vectors
    17.350500584 17.350500584 22.083299637     0.066551425  0.066551425  0.045283088


 
 k-points in units of 2pi/SCALE and weight: K-POINTS                                
   0.00000000  0.00000000  0.00000000       0.111
   0.01921174  0.01109190  0.00000000       0.222
   0.00000000  0.02218381  0.00000000       0.444
   0.01921174  0.03327571  0.00000000       0.222
 
 k-points in reciprocal lattice and weights: K-POINTS                                
   0.00000000  0.00000000  0.00000000       0.111
   0.33333333  0.00000000  0.00000000       0.222
   0.00000000  0.33333333  0.00000000       0.444
   0.33333333  0.33333333  0.00000000       0.222
 
 position of ions in fractional coordinates (direct lattice) 
   0.00000000  0.00000000  0.00000000
   1.00000000  0.16666667  0.00000000
   0.16666667  0.16666667  0.00000000
   0.16666667  0.00000000  0.00000000
   0.00000000  0.33333333  0.00000000
   0.00000000  0.50000000  0.00000000
   0.16666667  0.50000000  0.00000000
   0.16666667  0.33333333  0.00000000
   0.00000000  0.66666667  0.00000000
   1.00000000  0.83333333  0.00000000
   0.16666667  0.83333333  0.00000000
   0.16666667  0.66666667  0.00000000
   0.33333333  0.00000000  0.00000000
   0.33333333  0.16666667  0.00000000
   0.50000000  0.16666667  0.00000000
   0.50000000  0.00000000  0.00000000
   0.33333333  0.33333333  0.00000000
   0.33333333  0.50000000  0.00000000
   0.50000000  0.50000000  0.00000000
   0.50000000  0.33333333  0.00000000
   0.33333333  0.66666667  0.00000000
   0.33333333  0.83333333  0.00000000
   0.50000000  0.83333333  0.00000000
   0.50000000  0.66666667  0.00000000
   0.66666667  0.00000000  0.00000000
   0.66666667  0.16666667  0.00000000
   0.83333333  0.16666667  0.00000000
   0.83333333  0.00000000  0.00000000
   0.66666667  0.33333333  0.00000000
   0.66666667  0.50000000  0.00000000
   0.83333333  0.50000000  0.00000000
   0.83333333  0.33333333  0.00000000
   0.66666667  0.66666667  0.00000000
   0.66666667  0.83333333  0.00000000
   0.83333333  0.83333333  0.00000000
   0.83333333  0.66666667  0.00000000
   0.22222334  0.11111000  0.10692000
   0.22222334  0.27777666  0.10692000
   0.05555666  0.27777666  0.10692000
   0.05555666  0.11111000  0.10692000
   0.22222334  0.44444333  0.10692000
   0.22222334  0.61110999  0.10692000
   0.05555666  0.61110999  0.10692000
   0.05555666  0.44444333  0.10692000
   0.22222334  0.77777667  0.10692000
   0.22222334  0.94444333  0.10692000
   0.05555666  0.94444333  0.10692000
   0.05555666  0.77777667  0.10692000
   0.55555667  0.11111000  0.10692000
   0.55555667  0.27777666  0.10692000
   0.38889000  0.27777666  0.10692000
   0.38889000  0.11111000  0.10692000
   0.55555667  0.44444333  0.10692000
   0.55555667  0.61110999  0.10692000
   0.38889000  0.61110999  0.10692000
   0.38889000  0.44444333  0.10692000
   0.55555667  0.77777667  0.10692000
   0.55555667  0.94444333  0.10692000
   0.38889000  0.94444333  0.10692000
   0.38889000  0.77777667  0.10692000
   0.88889001  0.11111000  0.10692000
   0.88889001  0.27777666  0.10692000
   0.72222333  0.27777666  0.10692000
   0.72222333  0.11111000  0.10692000
   0.88889001  0.44444333  0.10692000
   0.88889001  0.61110999  0.10692000
   0.72222333  0.61110999  0.10692000
   0.72222333  0.44444333  0.10692000
   0.88889001  0.77777667  0.10692000
   0.88889001  0.94444333  0.10692000
   0.72222333  0.94444333  0.10692000
   0.72222333  0.77777667  0.10692000
   0.11110921  0.22222414  0.21303402
   0.11110921  0.05555746  0.21303402
   0.27777586  0.05555746  0.21303402
   0.27777586  0.22222414  0.21303402
   0.11110921  0.55555747  0.21303402
   0.11110921  0.38889079  0.21303402
   0.27777586  0.38889079  0.21303402
   0.27777586  0.55555747  0.21303402
   0.11110921  0.88889080  0.21303402
   0.11110921  0.72222413  0.21303402
   0.27777586  0.72222413  0.21303402
   0.27777586  0.88889080  0.21303402
   0.44444254  0.22222414  0.21303402
   0.44444254  0.05555746  0.21303402
   0.61110920  0.05555746  0.21303402
   0.61110920  0.22222414  0.21303402
   0.44444254  0.55555747  0.21303402
   0.44444254  0.38889079  0.21303402
   0.61110920  0.38889079  0.21303402
   0.61110920  0.55555747  0.21303402
   0.44444254  0.88889080  0.21303402
   0.44444254  0.72222413  0.21303402
   0.61110920  0.72222413  0.21303402
   0.61110920  0.88889080  0.21303402
   0.77777587  0.22222414  0.21303402
   0.77777587  0.05555746  0.21303402
   0.94444253  0.05555746  0.21303402
   0.94444253  0.22222414  0.21303402
   0.77777587  0.55555747  0.21303402
   0.77777587  0.38889079  0.21303402
   0.94444253  0.38889079  0.21303402
   0.94444253  0.55555747  0.21303402
   0.77777587  0.88889080  0.21303402
   0.77777587  0.72222413  0.21303402
   0.94444253  0.72222413  0.21303402
   0.94444253  0.88889080  0.21303402
   0.99999972  0.00000028  0.32452582
   0.99999972  0.16666695  0.32452582
   0.16666639  0.16666695  0.32452582
   0.16666639  0.00000028  0.32452582
   0.99999972  0.33333361  0.32452582
   0.99999972  0.50000028  0.32452582
   0.16666639  0.50000028  0.32452582
   0.16666639  0.33333361  0.32452582
   0.99999972  0.66666695  0.32452582
   0.99999972  0.83333361  0.32452582
   0.16666639  0.83333361  0.32452582
   0.16666639  0.66666695  0.32452582
   0.33333305  0.00000028  0.32452582
   0.33333305  0.16666695  0.32452582
   0.49999972  0.16666695  0.32452582
   0.49999972  0.00000028  0.32452582
   0.33333305  0.33333361  0.32452582
   0.33333305  0.50000028  0.32452582
   0.49999972  0.50000028  0.32452582
   0.49999972  0.33333361  0.32452582
   0.33333305  0.66666695  0.32452582
   0.33333305  0.83333361  0.32452582
   0.49999972  0.83333361  0.32452582
   0.49999972  0.66666695  0.32452582
   0.66666639  0.00000028  0.32452582
   0.66666639  0.16666695  0.32452582
   0.83333305  0.16666695  0.32452582
   0.83333305  0.00000028  0.32452582
   0.66666639  0.33333361  0.32452582
   0.66666639  0.50000028  0.32452582
   0.83333305  0.50000028  0.32452582
   0.83333305  0.33333361  0.32452582
   0.66666639  0.66666695  0.32452582
   0.66666639  0.83333361  0.32452582
   0.83333305  0.83333361  0.32452582
   0.83333305  0.66666695  0.32452582
 
 position of ions in cartesian coordinates  (Angst):
   0.00000000  0.00000000  0.00000000
  15.90462553  2.50432905  0.00000000
   1.44587505  2.50432905  0.00000000
   2.89175010  0.00000000  0.00000000
  -2.89175010  5.00865809  0.00000000
  -4.33762515  7.51298714  0.00000000
  -1.44587505  7.51298714  0.00000000
  -0.00000000  5.00865809  0.00000000
  -5.78350019 10.01731618  0.00000000
  10.12112534 12.52164523  0.00000000
  -4.33762515 12.52164523  0.00000000
  -2.89175010 10.01731618  0.00000000
   5.78350019  0.00000000  0.00000000
   4.33762515  2.50432905  0.00000000
   7.22937524  2.50432905  0.00000000
   8.67525029  0.00000000  0.00000000
   2.89175010  5.00865809  0.00000000
   1.44587505  7.51298714  0.00000000
   4.33762515  7.51298714  0.00000000
   5.78350019  5.00865809  0.00000000
  -0.00000000 10.01731618  0.00000000
  -1.44587505 12.52164523  0.00000000
   1.44587505 12.52164523  0.00000000
   2.89175010 10.01731618  0.00000000
  11.56700039  0.00000000  0.00000000
  10.12112534  2.50432905  0.00000000
  13.01287544  2.50432905  0.00000000
  14.45875049  0.00000000  0.00000000
   8.67525029  5.00865809  0.00000000
   7.22937524  7.51298714  0.00000000
  10.12112534  7.51298714  0.00000000
  11.56700039  5.00865809  0.00000000
   5.78350019 10.01731618  0.00000000
   4.33762515 12.52164523  0.00000000
   7.22937524 12.52164523  0.00000000
   8.67525029 10.01731618  0.00000000
   2.89177914  1.66953603  2.36114631
   1.44590417  4.17386493  2.36114631
  -1.44584609  4.17386493  2.36114631
   0.00002887  1.66953603  2.36114631
   0.00002904  6.67819412  2.36114631
  -1.44584592  9.18252302  2.36114631
  -4.33759619  9.18252302  2.36114631
  -2.89172122  6.67819412  2.36114631
  -2.89172106 11.68685221  2.36114631
  -4.33759602 14.19118111  2.36114631
  -7.22934629 14.19118111  2.36114631
  -5.78347132 11.68685221  2.36114631
   8.67527933  1.66953603  2.36114631
   7.22940437  4.17386493  2.36114631
   4.33765410  4.17386493  2.36114631
   5.78352907  1.66953603  2.36114631
   5.78352924  6.67819412  2.36114631
   4.33765427  9.18252302  2.36114631
   1.44590401  9.18252302  2.36114631
   2.89177897  6.67819412  2.36114631
   2.89177914 11.68685221  2.36114631
   1.44590417 14.19118111  2.36114631
  -1.44584609 14.19118111  2.36114631
   0.00002887 11.68685221  2.36114631
  14.45877953  1.66953603  2.36114631
  13.01290456  4.17386493  2.36114631
  10.12115430  4.17386493  2.36114631
  11.56702926  1.66953603  2.36114631
  11.56702943  6.67819412  2.36114631
  10.12115447  9.18252302  2.36114631
   7.22940420  9.18252302  2.36114631
   8.67527917  6.67819412  2.36114631
   8.67527933 11.68685221  2.36114631
   7.22940437 14.19118111  2.36114631
   4.33765410 14.19118111  2.36114631
   5.78352907 11.68685221  2.36114631
  -0.00004962  3.33913414  4.70449410
   1.44582551  0.83480495  4.70449410
   4.33757544  0.83480495  4.70449410
   2.89170031  3.33913414  4.70449410
  -2.89179972  8.34779223  4.70449410
  -1.44592459  5.84346304  4.70449410
   1.44582534  5.84346304  4.70449410
  -0.00004979  8.34779223  4.70449410
  -5.78354982 13.35645032  4.70449410
  -4.33767468 10.85212113  4.70449410
  -1.44592476 10.85212113  4.70449410
  -2.89179989 13.35645032  4.70449410
   5.78345057  3.33913414  4.70449410
   7.22932570  0.83480495  4.70449410
  10.12107563  0.83480495  4.70449410
   8.67520050  3.33913414  4.70449410
   2.89170047  8.34779223  4.70449410
   4.33757561  5.84346304  4.70449410
   7.22932554  5.84346304  4.70449410
   5.78345040  8.34779223  4.70449410
  -0.00004962 13.35645032  4.70449410
   1.44582551 10.85212113  4.70449410
   4.33757544 10.85212113  4.70449410
   2.89170031 13.35645032  4.70449410
  11.56695077  3.33913414  4.70449410
  13.01282590  0.83480495  4.70449410
  15.90457583  0.83480495  4.70449410
  14.45870070  3.33913414  4.70449410
   8.67520067  8.34779223  4.70449410
  10.12107580  5.84346304  4.70449410
  13.01282573  5.84346304  4.70449410
  11.56695060  8.34779223  4.70449410
   5.78345057 13.35645032  4.70449410
   7.22932570 10.85212113  4.70449410
  10.12107563 10.85212113  4.70449410
   8.67520050 13.35645032  4.70449410
  17.35049331  0.00000420  7.16660096
  15.90461827  2.50433324  7.16660096
   1.44586778  2.50433324  7.16660096
   2.89174283  0.00000420  7.16660096
  14.45874322  5.00866229  7.16660096
  13.01286817  7.51299133  7.16660096
  -1.44588232  7.51299133  7.16660096
  -0.00000727  5.00866229  7.16660096
  11.56699312 10.01732038  7.16660096
  10.12111807 12.52164942  7.16660096
  -4.33763241 12.52164942  7.16660096
  -2.89175737 10.01732038  7.16660096
   5.78349293  0.00000420  7.16660096
   4.33761788  2.50433324  7.16660096
   7.22936797  2.50433324  7.16660096
   8.67524302  0.00000420  7.16660096
   2.89174283  5.00866229  7.16660096
   1.44586778  7.51299133  7.16660096
   4.33761788  7.51299133  7.16660096
   5.78349293  5.00866229  7.16660096
  -0.00000727 10.01732038  7.16660096
  -1.44588232 12.52164942  7.16660096
   1.44586778 12.52164942  7.16660096
   2.89174283 10.01732038  7.16660096
  11.56699312  0.00000420  7.16660096
  10.12111807  2.50433324  7.16660096
  13.01286817  2.50433324  7.16660096
  14.45874322  0.00000420  7.16660096
   8.67524302  5.00866229  7.16660096
   7.22936797  7.51299133  7.16660096
  10.12111807  7.51299133  7.16660096
  11.56699312  5.00866229  7.16660096
   5.78349293 10.01732038  7.16660096
   4.33761788 12.52164942  7.16660096
   7.22936797 12.52164942  7.16660096
   8.67524302 10.01732038  7.16660096
 


--------------------------------------------------------------------------------------------------------


 k-point  1 :   0.0000 0.0000 0.0000  plane waves:  124805
 k-point  2 :   0.3333 0.0000 0.0000  plane waves:  124786
 k-point  3 :   0.0000 0.3333 0.0000  plane waves:  124786
 k-point  4 :   0.3333 0.3333 0.0000  plane waves:  124836

 maximum and minimum number of plane-waves per node :    124836   124786

 maximum number of plane-waves:    124836
 maximum index in each direction: 
   IXMAX=   30   IYMAX=   30   IZMAX=   38
   IXMIN=  -30   IYMIN=  -30   IZMIN=  -38


 serial   3D FFT for wavefunctions
 parallel 3D FFT for charge:
    minimum data exchange during FFTs selected (reduces bandwidth)


 total amount of memory used by VASP MPI-rank0   303275. kBytes
=======================================================================

   base      :      30000. kBytes
   nonlr-proj:      50858. kBytes
   fftplans  :       9705. kBytes
   grid      :      47350. kBytes
   one-center:       2239. kBytes
   wavefun   :     163123. kBytes
 
     INWAV:  cpu time    0.0000: real time    0.0000
 Broyden mixing: mesh for mixing (old mesh)
   NGX = 61   NGY = 61   NGZ = 77
  (NGX  =180   NGY  =180   NGZ  =240)
  gives a total of 286517 points

 initial charge density was supplied:
 charge density of overlapping atoms calculated
 number of electron    1584.0000000 magnetization 
 keeping initial charge density in first step


--------------------------------------------------------------------------------------------------------


 Maximum index for non-local projection operator         2043
 Maximum index for augmentation-charges          451 (set IRDMAX)


--------------------------------------------------------------------------------------------------------


 First call to EWALD:  gamma=   0.099
 Maximum number of real-space cells 3x 3x 2
 Maximum number of reciprocal cells 3x 3x 3

    FEWALD:  cpu time    0.0050: real time    0.0050


--------------------------------------- Iteration      1(   1)  ---------------------------------------


    POTLOK:  cpu time    0.1567: real time    0.1695
    SETDIJ:  cpu time    0.0124: real time    0.0171
     EDDAV:  cpu time   49.6145: real time   49.6804
       DOS:  cpu time    0.0018: real time    0.0051
    --------------------------------------------
      LOOP:  cpu time   49.7854: real time   49.8721

 eigenvalue-minimisations  :  7680
 total energy-change (2. order) : 0.9496429E+04  (-0.6935887E+05)
 number of electron    1584.0000000 magnetization 
 augmentation part     1584.0000000 magnetization 

 DIPCOR: dipole corrections for dipol
 direction  3 min pos   155,
 dipolmoment           0.000000      0.000000     -0.000461 electrons x Angstroem
 Tr[quadrupol]    -80823.923127

 energy correction for charged system         0.000000 eV
 dipol+quadrupol energy correction           -0.000000 eV
 added-field ion interaction          0.009962 eV  (added to PSCEN)


 Free energy of the ion-electron system (eV)
  ---------------------------------------------------
  alpha Z        PSCENC =      3063.52876023
  Ewald energy   TEWEN  =    401787.71764325
  -Hartree energ DENC   =   -555525.88314197
  -exchange      EXHF   =         0.00000000
  -V(xc)+E(xc)   XCENC  =     -1533.51009088
  PAW double counting   =    144498.54950302  -137858.29548920
  entropy T*S    EENTRO =        -0.02422412
  eigenvalues    EBANDS =      5698.61323438
  atomic energy  EATOM  =    149365.73252269
  Solvation  Ediel_sol  =         0.00000000
  ---------------------------------------------------
  free energy    TOTEN  =      9496.42871739 eV

  energy without entropy =     9496.45294152  energy(sigma->0) =     9496.44082946


--------------------------------------------------------------------------------------------------------




--------------------------------------- Iteration      1(   2)  ---------------------------------------


     EDDAV:  cpu time   52.6307: real time   52.7396
       DOS:  cpu time    0.0020: real time    0.0020
    --------------------------------------------
      LOOP:  cpu time   52.6328: real time   52.7416

 eigenvalue-minimisations  :  8208
 total energy-change (2. order) :-0.9526066E+04  (-0.9032591E+04)
 number of electron    1584.0000000 magnetization 
 augmentation part     1584.0000000 magnetization 

 DIPCOR: dipole corrections for dipol
 direction  3 min pos   155,
 dipolmoment           0.000000      0.000000     -0.000461 electrons x Angstroem
 Tr[quadrupol]    -80823.923127

 energy correction for charged system         0.000000 eV
 dipol+quadrupol energy correction           -0.000000 eV
 added-field ion interaction          0.009962 eV  (added to PSCEN)


 Free energy of the ion-electron system (eV)
  ---------------------------------------------------
  alpha Z        PSCENC =      3063.52876023
  Ewald energy   TEWEN  =    401787.71764325
  -Hartree energ DENC   =   -555525.88314197
  -exchange      EXHF   =         0.00000000
  -V(xc)+E(xc)   XCENC  =     -1533.51009088
  PAW double counting   =    144498.54950302  -137858.29548920
  entropy T*S    EENTRO =        -0.02255344
  eigenvalues    EBANDS =     -3827.45453096
  atomic energy  EATOM  =    149365.73252269
  Solvation  Ediel_sol  =         0.00000000
  ---------------------------------------------------
  free energy    TOTEN  =       -29.63737726 eV

  energy without entropy =      -29.61482382  energy(sigma->0) =      -29.62610054


--------------------------------------------------------------------------------------------------------




--------------------------------------- Iteration      1(   3)  ---------------------------------------


     EDDAV:  cpu time   58.2826: real time   58.4758
       DOS:  cpu time    0.0026: real time    0.0026
    --------------------------------------------
      LOOP:  cpu time   58.2851: real time   58.4783

 eigenvalue-minimisations  :  8496
 total energy-change (2. order) :-0.3620971E+03  (-0.3539144E+03)
 number of electron    1584.0000000 magnetization 
 augmentation part     1584.0000000 magnetization 

 DIPCOR: dipole corrections for dipol
 direction  3 min pos   155,
 dipolmoment           0.000000      0.000000     -0.000461 electrons x Angstroem
 Tr[quadrupol]    -80823.923127

 energy correction for charged system         0.000000 eV
 dipol+quadrupol energy correction           -0.000000 eV
 added-field ion interaction          0.009962 eV  (added to PSCEN)


 Free energy of the ion-electron system (eV)
  ---------------------------------------------------
  alpha Z        PSCENC =      3063.52876023
  Ewald energy   TEWEN  =    401787.71764325
  -Hartree energ DENC   =   -555525.88314197
  -exchange      EXHF   =         0.00000000
  -V(xc)+E(xc)   XCENC  =     -1533.51009088
  PAW double counting   =    144498.54950302  -137858.29548920
  entropy T*S    EENTRO =        -0.03982043
  eigenvalues    EBANDS =     -4189.53438096
  atomic energy  EATOM  =    149365.73252269
  Solvation  Ediel_sol  =         0.00000000
  ---------------------------------------------------
  free energy    TOTEN  =      -391.73449425 eV

  energy without entropy =     -391.69467382  energy(sigma->0) =     -391.71458403


--------------------------------------------------------------------------------------------------------




--------------------------------------- Iteration      1(   4)  ---------------------------------------


     EDDAV:  cpu time   55.8682: real time   55.8987
       DOS:  cpu time    0.0018: real time    0.0026
    --------------------------------------------
      LOOP:  cpu time   55.8701: real time   55.9013

 eigenvalue-minimisations  :  8784
 total energy-change (2. order) :-0.5594596E+01  (-0.5580097E+01)
 number of electron    1584.0000000 magnetization 
 augmentation part     1584.0000000 magnetization 

 DIPCOR: dipole corrections for dipol
 direction  3 min pos   155,
 dipolmoment           0.000000      0.000000     -0.000461 electrons x Angstroem
 Tr[quadrupol]    -80823.923127

 energy correction for charged system         0.000000 eV
 dipol+quadrupol energy correction           -0.000000 eV
 added-field ion interaction          0.009962 eV  (added to PSCEN)


 Free energy of the ion-electron system (eV)
  ---------------------------------------------------
  alpha Z        PSCENC =      3063.52876023
  Ewald energy   TEWEN  =    401787.71764325
  -Hartree energ DENC   =   -555525.88314197
  -exchange      EXHF   =         0.00000000
  -V(xc)+E(xc)   XCENC  =     -1533.51009088
  PAW double counting   =    144498.54950302  -137858.29548920
  entropy T*S    EENTRO =        -0.03983058
  eigenvalues    EBANDS =     -4195.12896687
  atomic energy  EATOM  =    149365.73252269
  Solvation  Ediel_sol  =         0.00000000
  ---------------------------------------------------
  free energy    TOTEN  =      -397.32909031 eV

  energy without entropy =     -397.28925973  energy(sigma->0) =     -397.30917502


--------------------------------------------------------------------------------------------------------




--------------------------------------- Iteration      1(   5)  ---------------------------------------


     EDDAV:  cpu time   56.4965: real time   56.5949
       DOS:  cpu time    0.0024: real time    0.0025
    --------------------------------------------
      LOOP:  cpu time   56.4989: real time   56.5974

 eigenvalue-minimisations  :  8736
 total energy-change (2. order) :-0.1140352E+00  (-0.1140148E+00)
 number of electron    1584.0000000 magnetization 
 augmentation part     1584.0000000 magnetization 

 DIPCOR: dipole corrections for dipol
 direction  3 min pos   155,
 dipolmoment           0.000000      0.000000     -0.000461 electrons x Angstroem
 Tr[quadrupol]    -80823.923127

 energy correction for charged system         0.000000 eV
 dipol+quadrupol energy correction           -0.000000 eV
 added-field ion interaction          0.009962 eV  (added to PSCEN)


 Free energy of the ion-electron system (eV)
  ---------------------------------------------------
  alpha Z        PSCENC =      3063.52876023
  Ewald energy   TEWEN  =    401787.71764325
  -Hartree energ DENC   =   -555525.88314197
  -exchange      EXHF   =         0.00000000
  -V(xc)+E(xc)   XCENC  =     -1533.51009088
  PAW double counting   =    144498.54950302  -137858.29548920
  entropy T*S    EENTRO =        -0.03983551
  eigenvalues    EBANDS =     -4195.24299709
  atomic energy  EATOM  =    149365.73252269
  Solvation  Ediel_sol  =         0.00000000
  ---------------------------------------------------
  free energy    TOTEN  =      -397.44312546 eV

  energy without entropy =     -397.40328995  energy(sigma->0) =     -397.42320771


--------------------------------------------------------------------------------------------------------




--------------------------------------- Iteration      1(   6)  ---------------------------------------


     EDDAV:  cpu time   56.9041: real time   56.9992
       DOS:  cpu time    0.0025: real time    0.0025
    --------------------------------------------
      LOOP:  cpu time   56.9066: real time   57.0017

 eigenvalue-minimisations  :  9024
 total energy-change (2. order) :-0.4154817E-02  (-0.4154580E-02)
 number of electron    1584.0000000 magnetization 
 augmentation part     1584.0000000 magnetization 

 DIPCOR: dipole corrections for dipol
 direction  3 min pos   155,
 dipolmoment           0.000000      0.000000     -0.000461 electrons x Angstroem
 Tr[quadrupol]    -80823.923127

 energy correction for charged system         0.000000 eV
 dipol+quadrupol energy correction           -0.000000 eV
 added-field ion interaction          0.009962 eV  (added to PSCEN)


 Free energy of the ion-electron system (eV)
  ---------------------------------------------------
  alpha Z        PSCENC =      3063.52876023
  Ewald energy   TEWEN  =    401787.71764325
  -Hartree energ DENC   =   -555525.88314197
  -exchange      EXHF   =         0.00000000
  -V(xc)+E(xc)   XCENC  =     -1533.51009088
  PAW double counting   =    144498.54950302  -137858.29548920
  entropy T*S    EENTRO =        -0.03983563
  eigenvalues    EBANDS =     -4195.24715179
  atomic energy  EATOM  =    149365.73252269
  Solvation  Ediel_sol  =         0.00000000
  ---------------------------------------------------
  free energy    TOTEN  =      -397.44728028 eV

  energy without entropy =     -397.40744465  energy(sigma->0) =     -397.42736246


--------------------------------------------------------------------------------------------------------




--------------------------------------- Iteration      1(   7)  ---------------------------------------


     EDDAV:  cpu time   56.8985: real time   57.1129
       DOS:  cpu time    0.0015: real time    0.0015
    CHARGE:  cpu time    2.6910: real time    2.6949
    MIXING:  cpu time    0.0046: real time    0.0053
    --------------------------------------------
      LOOP:  cpu time   59.5956: real time   59.8146

 eigenvalue-minimisations  :  9072
 total energy-change (2. order) :-0.1817722E-03  (-0.1817679E-03)
 number of electron    1584.0002642 magnetization 
 augmentation part      734.3926745 magnetization 

 DIPCOR: dipole corrections for dipol
 direction  3 min pos   155,
 dipolmoment           0.000000      0.000000     -0.000461 electrons x Angstroem
 Tr[quadrupol]    -80823.923127

 energy correction for charged system         0.000000 eV
 dipol+quadrupol energy correction           -0.000000 eV
 added-field ion interaction          0.009962 eV  (added to PSCEN)


 Broyden mixing:
  rms(total) = 0.54401E+01    rms(broyden)= 0.54401E+01
  rms(prec ) = 0.56229E+01
  weight for this iteration     100.00

 Free energy of the ion-electron system (eV)
  ---------------------------------------------------
  alpha Z        PSCENC =      3063.52876023
  Ewald energy   TEWEN  =    401787.71764325
  -Hartree energ DENC   =   -555525.88314197
  -exchange      EXHF   =         0.00000000
  -V(xc)+E(xc)   XCENC  =     -1533.51009088
  PAW double counting   =    144498.54950302  -137858.29548920
  entropy T*S    EENTRO =        -0.03983565
  eigenvalues    EBANDS =     -4195.24733354
  atomic energy  EATOM  =    149365.73252269
  Solvation  Ediel_sol  =         0.00000000
  ---------------------------------------------------
  free energy    TOTEN  =      -397.44746205 eV

  energy without entropy =     -397.40762640  energy(sigma->0) =     -397.42754422


--------------------------------------------------------------------------------------------------------




--------------------------------------- Iteration      1(   8)  ---------------------------------------


    POTLOK:  cpu time    0.1422: real time    0.1427
    SETDIJ:  cpu time    0.0120: real time    0.0120
    EDDIAG:  cpu time    9.7431: real time    9.7602
  RMM-DIIS:  cpu time   23.7145: real time   23.9822
    ORTHCH:  cpu time    3.1010: real time    3.1016
       DOS:  cpu time    0.0010: real time    0.0010
    CHARGE:  cpu time    2.6876: real time    2.6883
    MIXING:  cpu time    0.0051: real time    0.0092
    --------------------------------------------
      LOOP:  cpu time   39.4065: real time   39.6973

 eigenvalue-minimisations  :  7692
 total energy-change (2. order) : 0.2939110E+02  (-0.1092867E+02)
 number of electron    1584.0002712 magnetization 
 augmentation part      755.3125347 magnetization 

 DIPCOR: dipole corrections for dipol
 direction  3 min pos   164,
 dipolmoment           0.000000      0.000000      0.034700 electrons x Angstroem
 Tr[quadrupol]    -80830.658982

 energy correction for charged system         0.000000 eV
 dipol+quadrupol energy correction           -0.000019 eV
 added-field ion interaction          0.695942 eV  (added to PSCEN)


 Broyden mixing:
  rms(total) = 0.35637E+01    rms(broyden)= 0.35637E+01
  rms(prec ) = 0.35732E+01
  weight for this iteration     100.00

 eigenvalues of (default mixing * dielectric matrix)
  average eigenvalue GAMMA=   1.2801
  1.2801

 Free energy of the ion-electron system (eV)
  ---------------------------------------------------
  alpha Z        PSCENC =      3064.21472125
  Ewald energy   TEWEN  =    401787.71764325
  -Hartree energ DENC   =   -554438.28798861
  -exchange      EXHF   =         0.00000000
  -V(xc)+E(xc)   XCENC  =     -1579.58920880
  PAW double counting   =    149961.45721317  -143452.13967379
  entropy T*S    EENTRO =        -0.02837833
  eigenvalues    EBANDS =     -5077.13321583
  atomic energy  EATOM  =    149365.73252269
  Solvation  Ediel_sol  =         0.00000000
  ---------------------------------------------------
  free energy    TOTEN  =      -368.05636500 eV

  energy without entropy =     -368.02798667  energy(sigma->0) =     -368.04217584


--------------------------------------------------------------------------------------------------------




--------------------------------------- Iteration      1(   9)  ---------------------------------------


    POTLOK:  cpu time    0.1451: real time    0.1453
    SETDIJ:  cpu time    0.0118: real time    0.0118
    EDDIAG:  cpu time    9.8490: real time    9.8523
  RMM-DIIS:  cpu time   23.6694: real time   23.7203
    ORTHCH:  cpu time    3.1737: real time    3.1754
       DOS:  cpu time    0.0010: real time    0.0010
    CHARGE:  cpu time    2.6804: real time    2.6822
    MIXING:  cpu time    0.0054: real time    0.0055
    --------------------------------------------
      LOOP:  cpu time   39.5358: real time   39.5939

 eigenvalue-minimisations  :  7680
 total energy-change (2. order) : 0.9270306E+00  (-0.2585344E+00)
 number of electron    1584.0002718 magnetization 
 augmentation part      757.7020895 magnetization 

 DIPCOR: dipole corrections for dipol
 direction  3 min pos   168,
 dipolmoment           0.000000      0.000000     -0.252732 electrons x Angstroem
 Tr[quadrupol]    -80832.486243

 energy correction for charged system         0.000000 eV
 dipol+quadrupol energy correction           -0.001015 eV
 added-field ion interaction         -9.750031 eV  (added to PSCEN)


 Broyden mixing:
  rms(total) = 0.19258E+01    rms(broyden)= 0.19258E+01
  rms(prec ) = 0.19325E+01
  weight for this iteration     100.00

 eigenvalues of (default mixing * dielectric matrix)
  average eigenvalue GAMMA=   1.8273
  1.0936  2.5610

 Free energy of the ion-electron system (eV)
  ---------------------------------------------------
  alpha Z        PSCENC =      3053.76775251
  Ewald energy   TEWEN  =    401787.71764325
  -Hartree energ DENC   =   -554269.98803480
  -exchange      EXHF   =         0.00000000
  -V(xc)+E(xc)   XCENC  =     -1588.49391422
  PAW double counting   =    154544.33405184  -148139.55012964
  entropy T*S    EENTRO =        -0.02601165
  eigenvalues    EBANDS =     -5120.62321435
  atomic energy  EATOM  =    149365.73252269
  Solvation  Ediel_sol  =         0.00000000
  ---------------------------------------------------
  free energy    TOTEN  =      -367.12933436 eV

  energy without entropy =     -367.10332271  energy(sigma->0) =     -367.11632854


--------------------------------------------------------------------------------------------------------




--------------------------------------- Iteration      1(  10)  ---------------------------------------


    POTLOK:  cpu time    0.1463: real time    0.1473
    SETDIJ:  cpu time    0.0118: real time    0.0118
    EDDIAG:  cpu time    9.7417: real time    9.7522
  RMM-DIIS:  cpu time   23.7694: real time   23.8031
    ORTHCH:  cpu time    3.0746: real time    3.0756
       DOS:  cpu time    0.0010: real time    0.0010
    CHARGE:  cpu time    2.6889: real time    2.6898
    MIXING:  cpu time    0.0051: real time    0.0051
    --------------------------------------------
      LOOP:  cpu time   39.4389: real time   39.4859

 eigenvalue-minimisations  :  7705
 total energy-change (2. order) :-0.2513412E+01  (-0.1549392E+00)
 number of electron    1584.0002715 magnetization 
 augmentation part      757.2272330 magnetization 

 DIPCOR: dipole corrections for dipol
 direction  3 min pos   160,
 dipolmoment           0.000000      0.000000      1.535779 electrons x Angstroem
 Tr[quadrupol]    -80835.656570

 energy correction for charged system         0.000000 eV
 dipol+quadrupol energy correction           -0.037467 eV
 added-field ion interaction          2.355428 eV  (added to PSCEN)


 Broyden mixing:
  rms(total) = 0.48156E+00    rms(broyden)= 0.48156E+00
  rms(prec ) = 0.11392E+01
  weight for this iteration     100.00

 eigenvalues of (default mixing * dielectric matrix)
  average eigenvalue GAMMA=   1.3279
  2.5486  1.0904  0.3445

 Free energy of the ion-electron system (eV)
  ---------------------------------------------------
  alpha Z        PSCENC =      3065.83675885
  Ewald energy   TEWEN  =    401787.71764325
  -Hartree energ DENC   =   -554253.79177294
  -exchange      EXHF   =         0.00000000
  -V(xc)+E(xc)   XCENC  =     -1592.64097666
  PAW double counting   =    159122.51681259  -152822.93759730
  entropy T*S    EENTRO =        -0.04023140
  eigenvalues    EBANDS =     -5042.03590495
  atomic energy  EATOM  =    149365.73252269
  Solvation  Ediel_sol  =         0.00000000
  ---------------------------------------------------
  free energy    TOTEN  =      -369.64274588 eV

  energy without entropy =     -369.60251448  energy(sigma->0) =     -369.62263018


--------------------------------------------------------------------------------------------------------




--------------------------------------- Iteration      1(  11)  ---------------------------------------


    POTLOK:  cpu time    0.1451: real time    0.1465
    SETDIJ:  cpu time    0.0118: real time    0.0118
    EDDIAG:  cpu time    9.7298: real time    9.7371
  RMM-DIIS:  cpu time   23.7849: real time   23.7985
    ORTHCH:  cpu time    3.0804: real time    3.0809
       DOS:  cpu time    0.0010: real time    0.0010
    CHARGE:  cpu time    2.6895: real time    2.6903
    MIXING:  cpu time    0.0054: real time    0.0054
    --------------------------------------------
      LOOP:  cpu time   39.4479: real time   39.4715

 eigenvalue-minimisations  :  7705
 total energy-change (2. order) : 0.2856809E+01  (-0.8630648E-01)
 number of electron    1584.0002717 magnetization 
 augmentation part      757.4199033 magnetization 

 DIPCOR: dipole corrections for dipol
 direction  3 min pos   155,
 dipolmoment           0.000000      0.000000      0.163299 electrons x Angstroem
 Tr[quadrupol]    -80835.607683

 energy correction for charged system         0.000000 eV
 dipol+quadrupol energy correction           -0.000424 eV
 added-field ion interaction         -3.530411 eV  (added to PSCEN)


 Broyden mixing:
  rms(total) = 0.74235E-01    rms(broyden)= 0.74229E-01
  rms(prec ) = 0.81641E-01
  weight for this iteration     100.00

 eigenvalues of (default mixing * dielectric matrix)
  average eigenvalue GAMMA=   1.1871
  2.4911  1.0837  0.9072  0.2664

 Free energy of the ion-electron system (eV)
  ---------------------------------------------------
  alpha Z        PSCENC =      3059.98796417
  Ewald energy   TEWEN  =    401787.71764325
  -Hartree energ DENC   =   -554253.26557013
  -exchange      EXHF   =         0.00000000
  -V(xc)+E(xc)   XCENC  =     -1592.79917486
  PAW double counting   =    159120.34475437  -152821.11380222
  entropy T*S    EENTRO =        -0.02412009
  eigenvalues    EBANDS =     -5033.36615372
  atomic energy  EATOM  =    149365.73252269
  Solvation  Ediel_sol  =         0.00000000
  ---------------------------------------------------
  free energy    TOTEN  =      -366.78593654 eV

  energy without entropy =     -366.76181645  energy(sigma->0) =     -366.77387649


--------------------------------------------------------------------------------------------------------




--------------------------------------- Iteration      1(  12)  ---------------------------------------


    POTLOK:  cpu time    0.1451: real time    0.1458
    SETDIJ:  cpu time    0.0133: real time    0.0133
    EDDIAG:  cpu time   12.2589: real time   12.2617
  RMM-DIIS:  cpu time   23.8312: real time   24.0352
    ORTHCH:  cpu time    3.2164: real time    3.2171
       DOS:  cpu time    0.0010: real time    0.0010
    CHARGE:  cpu time    2.6915: real time    2.6921
    MIXING:  cpu time    0.0054: real time    0.0054
    --------------------------------------------
      LOOP:  cpu time   42.1627: real time   42.3714

 eigenvalue-minimisations  :  7713
 total energy-change (2. order) : 0.4402690E-02  (-0.1881005E-02)
 number of electron    1584.0002717 magnetization 
 augmentation part      757.5153361 magnetization 

 DIPCOR: dipole corrections for dipol
 direction  3 min pos   153,
 dipolmoment           0.000000      0.000000      0.155120 electrons x Angstroem
 Tr[quadrupol]    -80835.613534

 energy correction for charged system         0.000000 eV
 dipol+quadrupol energy correction           -0.000382 eV
 added-field ion interaction         -4.790195 eV  (added to PSCEN)


 Broyden mixing:
  rms(total) = 0.23007E-01    rms(broyden)= 0.23006E-01
  rms(prec ) = 0.30001E-01
  weight for this iteration     100.00

 eigenvalues of (default mixing * dielectric matrix)
  average eigenvalue GAMMA=   1.3374
  2.4825  1.9924  1.0702  0.8748  0.2671

 Free energy of the ion-electron system (eV)
  ---------------------------------------------------
  alpha Z        PSCENC =      3058.72822183
  Ewald energy   TEWEN  =    401787.71764325
  -Hartree energ DENC   =   -554252.75752612
  -exchange      EXHF   =         0.00000000
  -V(xc)+E(xc)   XCENC  =     -1592.79333765
  PAW double counting   =    158953.80168822  -152651.31310087
  entropy T*S    EENTRO =        -0.02480953
  eigenvalues    EBANDS =     -5035.87283566
  atomic energy  EATOM  =    149365.73252269
  Solvation  Ediel_sol  =         0.00000000
  ---------------------------------------------------
  free energy    TOTEN  =      -366.78153385 eV

  energy without entropy =     -366.75672431  energy(sigma->0) =     -366.76912908


--------------------------------------------------------------------------------------------------------




--------------------------------------- Iteration      1(  13)  ---------------------------------------


    POTLOK:  cpu time    0.1473: real time    0.1473
    SETDIJ:  cpu time    0.0118: real time    0.0118
    EDDIAG:  cpu time    9.7671: real time    9.7696
  RMM-DIIS:  cpu time   23.8677: real time   23.8782
    ORTHCH:  cpu time    3.0660: real time    3.0666
       DOS:  cpu time    0.0010: real time    0.0010
    CHARGE:  cpu time    2.6978: real time    2.6985
    MIXING:  cpu time    0.0056: real time    0.0056
    --------------------------------------------
      LOOP:  cpu time   39.5643: real time   39.5787

 eigenvalue-minimisations  :  7703
 total energy-change (2. order) :-0.7925173E-02  (-0.9525894E-03)
 number of electron    1584.0002717 magnetization 
 augmentation part      757.5385940 magnetization 

 DIPCOR: dipole corrections for dipol
 direction  3 min pos   161,
 dipolmoment           0.000000      0.000000     -0.035755 electrons x Angstroem
 Tr[quadrupol]    -80836.413511

 energy correction for charged system         0.000000 eV
 dipol+quadrupol energy correction           -0.000020 eV
 added-field ion interaction         -0.220404 eV  (added to PSCEN)


 Broyden mixing:
  rms(total) = 0.25596E-01    rms(broyden)= 0.25596E-01
  rms(prec ) = 0.64040E-01
  weight for this iteration     100.00

 eigenvalues of (default mixing * dielectric matrix)
  average eigenvalue GAMMA=   1.2971
  2.5414  2.1502  0.2657  1.0429  1.0429  0.7394

 Free energy of the ion-electron system (eV)
  ---------------------------------------------------
  alpha Z        PSCENC =      3063.29837434
  Ewald energy   TEWEN  =    401787.71764325
  -Hartree energ DENC   =   -554272.21090200
  -exchange      EXHF   =         0.00000000
  -V(xc)+E(xc)   XCENC  =     -1592.77374991
  PAW double counting   =    158872.02269355  -152568.69928459
  entropy T*S    EENTRO =        -0.02461910
  eigenvalues    EBANDS =     -5021.85213725
  atomic energy  EATOM  =    149365.73252269
  Solvation  Ediel_sol  =         0.00000000
  ---------------------------------------------------
  free energy    TOTEN  =      -366.78945902 eV

  energy without entropy =     -366.76483992  energy(sigma->0) =     -366.77714947


--------------------------------------------------------------------------------------------------------




--------------------------------------- Iteration      1(  14)  ---------------------------------------


    POTLOK:  cpu time    0.1456: real time    0.1463
    SETDIJ:  cpu time    0.0118: real time    0.0118
    EDDIAG:  cpu time    9.7551: real time    9.7623
  RMM-DIIS:  cpu time   23.7839: real time   23.8161
    ORTHCH:  cpu time    3.0587: real time    3.0595
       DOS:  cpu time    0.0010: real time    0.0010
    CHARGE:  cpu time    2.6801: real time    2.6823
    MIXING:  cpu time    0.0062: real time    0.0062
    --------------------------------------------
      LOOP:  cpu time   39.4424: real time   39.4855

 eigenvalue-minimisations  :  7702
 total energy-change (2. order) : 0.7824825E-02  (-0.6783698E-03)
 number of electron    1584.0002717 magnetization 
 augmentation part      757.5366675 magnetization 

 DIPCOR: dipole corrections for dipol
 direction  3 min pos   157,
 dipolmoment           0.000000      0.000000      0.117404 electrons x Angstroem
 Tr[quadrupol]    -80836.855126

 energy correction for charged system         0.000000 eV
 dipol+quadrupol energy correction           -0.000219 eV
 added-field ion interaction         -1.450890 eV  (added to PSCEN)


 Broyden mixing:
  rms(total) = 0.12600E-01    rms(broyden)= 0.12600E-01
  rms(prec ) = 0.29210E-01
  weight for this iteration     100.00

 eigenvalues of (default mixing * dielectric matrix)
  average eigenvalue GAMMA=   1.3218
  2.7199  2.4303  1.2079  1.1287  0.2653  0.8095  0.6907

 Free energy of the ion-electron system (eV)
[...]
 number of electron    1584.0000096 magnetization 
 augmentation part      757.5093056 magnetization 

 DIPCOR: dipole corrections for dipol
 direction  3 min pos   162,
 dipolmoment           0.000000      0.000000      0.028125 electrons x Angstroem
 Tr[quadrupol]    -80839.246853

 energy correction for charged system         0.000000 eV
 dipol+quadrupol energy correction           -0.000013 eV
 added-field ion interaction          0.295256 eV  (added to PSCEN)


 eigenvalues of (default mixing * dielectric matrix)
  average eigenvalue GAMMA=   1.2987
  2.6227  1.0129  0.2606

  free energy =  -0.367005791236E+03  energy without entropy=  -0.366981941220E+03


--------------------------------------------------------------------------------------------------------




--------------------------------------- Iteration     23(   5)  ---------------------------------------


    POTLOK:  cpu time    0.1472: real time    0.1479
    SETDIJ:  cpu time    0.0118: real time    0.0118
    EDDIAG:  cpu time    9.7481: real time    9.7511
  RMM-DIIS:  cpu time   23.0126: real time   23.0220
    ORTHCH:  cpu time    3.0574: real time    3.0596
       DOS:  cpu time    0.0010: real time    0.0010
    CHARGE:  cpu time    2.7123: real time    2.7144
    MIXING:  cpu time    0.0054: real time    0.0054
    --------------------------------------------
      LOOP:  cpu time   38.6958: real time   38.7132

 eigenvalue-minimisations  :  7622
 total energy-change (2. order) : 0.5983777E-05  (-0.1140610E-05)
 number of electron    1584.0000096 magnetization 
 augmentation part      757.5091416 magnetization 

 DIPCOR: dipole corrections for dipol
 direction  3 min pos   162,
 dipolmoment           0.000000      0.000000      0.030428 electrons x Angstroem
 Tr[quadrupol]    -80839.247357

 energy correction for charged system         0.000000 eV
 dipol+quadrupol energy correction           -0.000015 eV
 added-field ion interaction          0.319433 eV  (added to PSCEN)


 eigenvalues of (default mixing * dielectric matrix)
  average eigenvalue GAMMA=   1.1770
  2.5753  0.9371  0.9371  0.2586

  free energy =  -0.367005785252E+03  energy without entropy=  -0.366981932933E+03


--------------------------------------------------------------------------------------------------------




--------------------------------------- Iteration     23(   6)  ---------------------------------------


    POTLOK:  cpu time    0.1466: real time    0.1482
    SETDIJ:  cpu time    0.0118: real time    0.0118
    EDDIAG:  cpu time    9.7824: real time    9.7876
  RMM-DIIS:  cpu time   13.5994: real time   13.6096
    ORTHCH:  cpu time    3.0532: real time    3.0550
       DOS:  cpu time    0.0010: real time    0.0010
    --------------------------------------------
      LOOP:  cpu time   26.5943: real time   26.6132

 eigenvalue-minimisations  :  4241
 total energy-change (2. order) : 0.5390320E-06  (-0.6436896E-07)
 number of electron    1584.0000096 magnetization 
 augmentation part      757.5091416 magnetization 

 DIPCOR: dipole corrections for dipol
 direction  3 min pos   162,
 dipolmoment           0.000000      0.000000      0.030418 electrons x Angstroem
 Tr[quadrupol]    -80839.246927

 energy correction for charged system         0.000000 eV
 dipol+quadrupol energy correction           -0.000015 eV
 added-field ion interaction          0.319318 eV  (added to PSCEN)


  free energy =  -0.367005784713E+03  energy without entropy=  -0.366981932059E+03


--------------------------------------------------------------------------------------------------------




------------------------ aborting loop because EDIFF is reached ----------------------------------------


    CHARGE:  cpu time    2.6016: real time    2.6041
    FORLOC:  cpu time    0.0965: real time    0.0965
    FORNL :  cpu time    8.0018: real time    8.0064
    STRESS:  cpu time   24.4472: real time   24.4548
    FORCOR:  cpu time    0.3596: real time    0.3596
    FORHAR:  cpu time    0.2285: real time    0.2285
    MIXING:  cpu time    0.0378: real time    0.0378
    OFIELD:  cpu time    0.0001: real time    0.0001

  Number of pair interactions contributing to vdW energy:  481896
  Edisp (eV):   -9.57591
    FORVDW:  cpu time    0.0642: real time    0.0642

  FORCE on cell =-STRESS in cart. coord.  units (eV):
  Direction    XX          YY          ZZ          XY          YZ          ZX
  --------------------------------------------------------------------------------------
  Alpha Z  3063.51880  3063.51880  3063.51880
  Ewald  495087.00585495087.05574************    -0.06222     0.02333     0.06052
  Hartree535848.12485535848.15289************    -0.02979     0.01226     0.02612
  E(xc)   -8357.61406 -8357.61378 -8382.03155     0.00026     0.00007     0.00006
  Local  ************************************     0.08548    -0.03628    -0.08313
  n-local -1228.21229 -1225.68546 -1268.81602     0.72852     0.64158    -0.36956
  augment 13237.52932 13237.53487 13290.19464     0.00576    -0.00017    -0.00093
  Kinetic 19613.81468 19612.85191 19742.99625    -0.27744    -0.28206     0.16175
  Fock        0.00000     0.00000     0.00000     0.00000     0.00000     0.00000
  vdW       -14.33969   -14.33971    -9.92110     0.00003    -0.00004    -0.00007
  -------------------------------------------------------------------------------------
  Total      10.65985    10.66060    10.05374    -0.00064     0.00097     0.00167
  in kB       2.96649     2.96670     2.79782    -0.00018     0.00027     0.00047
  external pressure =        2.91 kB  Pullay stress =        0.00 kB



--------------------------------------------------------------------------------------------------------



  FREE ENERGIE OF THE ION-ELECTRON SYSTEM (eV)
  ---------------------------------------------------
  free  energy   TOTEN  =      -376.58169630 eV

  energy  without entropy=     -376.55784364  energy(sigma->0) =     -376.56976997
 
 d Force =-0.6950137E-04[-0.474E-03, 0.335E-03]  d Energy =-0.2445647E-04-0.450E-04
 d Force =-0.4067677E+02[-0.407E+02,-0.407E+02]  d Ewald  =-0.4067678E+02 0.140E-05


--------------------------------------------------------------------------------------------------------


    POTLOK:  cpu time    0.2989: real time    0.2991


--------------------------------------------------------------------------------------------------------


 Quasi-Newton relaxation of ions (Broydens 2nd method)
  g(Force)  = 0.119E-03   g(Stress)= 0.000E+00

 retain information from N=  1 steps
 eigenvalues of (default step * inverse Hessian matrix)
  average eigenvalue of G=   3.7618
 eigenvalue spectrum of G is  3.7618


--------------------------------------------------------------------------------------------------------


    WAVPRE:  cpu time    0.1254: real time    0.1269
    FEWALD:  cpu time    0.0131: real time    0.0131
    ORTHCH:  cpu time    7.0717: real time    7.1928
     LOOP+:  cpu time  280.9738: real time  281.2184


--------------------------------------- Iteration     24(   1)  ---------------------------------------


    POTLOK:  cpu time    0.1481: real time    0.1487
    SETDIJ:  cpu time    0.0117: real time    0.0117
     EDDAV:  cpu time   50.3506: real time   50.3640
       DOS:  cpu time    0.0027: real time    0.0027
    CHARGE:  cpu time    2.7096: real time    2.7103
    MIXING:  cpu time    0.0041: real time    0.0041
    --------------------------------------------
      LOOP:  cpu time   53.2268: real time   53.2414

 eigenvalue-minimisations  :  7680
 total energy-change (2. order) :-0.3600720E-03  (-0.2650202E-01)
 number of electron    1584.0000120 magnetization 
 augmentation part      757.5123429 magnetization 

 DIPCOR: dipole corrections for dipol
 direction  3 min pos   162,
 dipolmoment           0.000000      0.000000      0.030386 electrons x Angstroem
 Tr[quadrupol]    -80839.262168

 energy correction for charged system         0.000000 eV
 dipol+quadrupol energy correction           -0.000015 eV
 added-field ion interaction          0.319034 eV  (added to PSCEN)


  free energy =  -0.367006145324E+03  energy without entropy=  -0.366982399327E+03


--------------------------------------------------------------------------------------------------------




--------------------------------------- Iteration     24(   2)  ---------------------------------------


    POTLOK:  cpu time    0.1523: real time    0.1526
    SETDIJ:  cpu time    0.0117: real time    0.0117
    EDDIAG:  cpu time    9.7651: real time    9.7684
  RMM-DIIS:  cpu time   24.0077: real time   24.0155
    ORTHCH:  cpu time    3.0694: real time    3.0709
       DOS:  cpu time    0.0010: real time    0.0010
    CHARGE:  cpu time    2.6938: real time    2.6943
    MIXING:  cpu time    0.0045: real time    0.0045
    --------------------------------------------
      LOOP:  cpu time   39.7056: real time   39.7191

 eigenvalue-minimisations  :  7705
 total energy-change (2. order) :-0.1499119E-03  (-0.1508242E-03)
 number of electron    1584.0000120 magnetization 
 augmentation part      757.5108111 magnetization 

 DIPCOR: dipole corrections for dipol
 direction  3 min pos   163,
 dipolmoment           0.000000      0.000000      0.033422 electrons x Angstroem
 Tr[quadrupol]    -80839.264791

 energy correction for charged system         0.000000 eV
 dipol+quadrupol energy correction           -0.000018 eV
 added-field ion interaction          0.505681 eV  (added to PSCEN)


 eigenvalues of (default mixing * dielectric matrix)
  average eigenvalue GAMMA=   1.0698
  1.0698

  free energy =  -0.367006295236E+03  energy without entropy=  -0.366982522386E+03


--------------------------------------------------------------------------------------------------------




--------------------------------------- Iteration     24(   3)  ---------------------------------------


    POTLOK:  cpu time    0.1479: real time    0.1481
    SETDIJ:  cpu time    0.0116: real time    0.0116
    EDDIAG:  cpu time    9.9119: real time    9.9143
  RMM-DIIS:  cpu time   23.9680: real time   23.9781
    ORTHCH:  cpu time    3.0428: real time    3.0441
       DOS:  cpu time    0.0010: real time    0.0010
    CHARGE:  cpu time    2.7011: real time    2.7026
    MIXING:  cpu time    0.0046: real time    0.0046
    --------------------------------------------
      LOOP:  cpu time   39.7889: real time   39.8042

 eigenvalue-minimisations  :  7715
 total energy-change (2. order) :-0.7812807E-05  (-0.5672233E-05)
 number of electron    1584.0000120 magnetization 
 augmentation part      757.5106424 magnetization 

 DIPCOR: dipole corrections for dipol
 direction  3 min pos   161,
 dipolmoment           0.000000      0.000000      0.027975 electrons x Angstroem
 Tr[quadrupol]    -80839.252409

 energy correction for charged system         0.000000 eV
 dipol+quadrupol energy correction           -0.000012 eV
 added-field ion interaction          0.164181 eV  (added to PSCEN)


 eigenvalues of (default mixing * dielectric matrix)
  average eigenvalue GAMMA=   0.9132
  1.2745  0.5520

  free energy =  -0.367006303049E+03  energy without entropy=  -0.366982545066E+03


--------------------------------------------------------------------------------------------------------




--------------------------------------- Iteration     24(   4)  ---------------------------------------


    POTLOK:  cpu time    0.1477: real time    0.1493
    SETDIJ:  cpu time    0.0117: real time    0.0117
    EDDIAG:  cpu time    9.7656: real time    9.7718
  RMM-DIIS:  cpu time   23.6012: real time   23.6106
    ORTHCH:  cpu time    3.4059: real time    3.4068
       DOS:  cpu time    0.0010: real time    0.0010
    CHARGE:  cpu time    2.7298: real time    2.7302
    MIXING:  cpu time    0.0051: real time    0.0051
    --------------------------------------------
      LOOP:  cpu time   39.6679: real time   39.6865

 eigenvalue-minimisations  :  7639
 total energy-change (2. order) : 0.1414859E-04  (-0.1492446E-05)
 number of electron    1584.0000120 magnetization 
 augmentation part      757.5106529 magnetization 

 DIPCOR: dipole corrections for dipol
 direction  3 min pos   161,
 dipolmoment           0.000000      0.000000      0.032823 electrons x Angstroem
 Tr[quadrupol]    -80839.254626

 energy correction for charged system         0.000000 eV
 dipol+quadrupol energy correction           -0.000017 eV
 added-field ion interaction          0.192636 eV  (added to PSCEN)


 eigenvalues of (default mixing * dielectric matrix)
  average eigenvalue GAMMA=   1.2960
  2.6170  1.0102  0.2607

  free energy =  -0.367006288900E+03  energy without entropy=  -0.366982526625E+03


--------------------------------------------------------------------------------------------------------




--------------------------------------- Iteration     24(   5)  ---------------------------------------


    POTLOK:  cpu time    0.1476: real time    0.1482
    SETDIJ:  cpu time    0.0118: real time    0.0118
    EDDIAG:  cpu time    9.7906: real time    9.7937
  RMM-DIIS:  cpu time   20.6978: real time   20.7045
    ORTHCH:  cpu time    3.0616: real time    3.0647
       DOS:  cpu time    0.0010: real time    0.0010
    CHARGE:  cpu time    2.7067: real time    2.7083
    MIXING:  cpu time    0.0053: real time    0.0053
    --------------------------------------------
      LOOP:  cpu time   36.4222: real time   36.4374

 eigenvalue-minimisations  :  6772
 total energy-change (2. order) : 0.5387148E-05  (-0.5512476E-06)
 number of electron    1584.0000120 magnetization 
 augmentation part      757.5107708 magnetization 

 DIPCOR: dipole corrections for dipol
 direction  3 min pos   162,
 dipolmoment           0.000000      0.000000      0.031265 electrons x Angstroem
 Tr[quadrupol]    -80839.259595

 energy correction for charged system         0.000000 eV
 dipol+quadrupol energy correction           -0.000016 eV
 added-field ion interaction          0.328261 eV  (added to PSCEN)


 eigenvalues of (default mixing * dielectric matrix)
  average eigenvalue GAMMA=   1.1759
  2.5847  0.9303  0.9303  0.2584

  free energy =  -0.367006283513E+03  energy without entropy=  -0.366982522215E+03


--------------------------------------------------------------------------------------------------------




--------------------------------------- Iteration     24(   6)  ---------------------------------------


    POTLOK:  cpu time    0.1489: real time    0.1489
    SETDIJ:  cpu time    0.0117: real time    0.0117
    EDDIAG:  cpu time    9.9206: real time    9.9235
  RMM-DIIS:  cpu time   13.2369: real time   13.2422
    ORTHCH:  cpu time    3.0606: real time    3.0613
       DOS:  cpu time    0.0010: real time    0.0010
    --------------------------------------------
      LOOP:  cpu time   26.3796: real time   26.3886

 eigenvalue-minimisations  :  4112
 total energy-change (2. order) : 0.9307405E-07  (-0.3753333E-07)
 number of electron    1584.0000120 magnetization 
 augmentation part      757.5107708 magnetization 

 DIPCOR: dipole corrections for dipol
 direction  3 min pos   162,
 dipolmoment           0.000000      0.000000      0.031276 electrons x Angstroem
 Tr[quadrupol]    -80839.259693

 energy correction for charged system         0.000000 eV
 dipol+quadrupol energy correction           -0.000016 eV
 added-field ion interaction          0.328381 eV  (added to PSCEN)


  free energy =  -0.367006283420E+03  energy without entropy=  -0.366982522279E+03


--------------------------------------------------------------------------------------------------------




------------------------ aborting loop because EDIFF is reached ----------------------------------------


    CHARGE:  cpu time    2.6084: real time    2.6093
    FORLOC:  cpu time    0.0965: real time    0.0965
    FORNL :  cpu time    8.0162: real time    8.0186
    STRESS:  cpu time   23.8158: real time   23.8250
    FORCOR:  cpu time    0.2059: real time    0.2059
    FORHAR:  cpu time    0.1221: real time    0.1221
    MIXING:  cpu time    0.0053: real time    0.0053
    OFIELD:  cpu time    0.0001: real time    0.0001

  Number of pair interactions contributing to vdW energy:  481896
  Edisp (eV):   -9.57560
    FORVDW:  cpu time    0.0642: real time    0.0642

  FORCE on cell =-STRESS in cart. coord.  units (eV):
  Direction    XX          YY          ZZ          XY          YZ          ZX
  --------------------------------------------------------------------------------------
  Alpha Z  3063.51880  3063.51880  3063.51880
  Ewald  495050.11872495050.15808************    -0.05374     0.01829     0.05236
  Hartree535811.68128535811.70412************    -0.02548     0.01005     0.02244
  E(xc)   -8357.59441 -8357.59414 -8382.01971     0.00027     0.00007     0.00005
  Local  ************************************     0.07287    -0.02927    -0.07160
  n-local -1228.19607 -1225.66780 -1268.45025     0.72912     0.64232    -0.37023
  augment 13237.51936 13237.52502 13290.22687     0.00567    -0.00009    -0.00081
  Kinetic 19613.77243 19612.81727 19743.00802    -0.27537    -0.28103     0.16132
  Fock        0.00000     0.00000     0.00000     0.00000     0.00000     0.00000
  vdW       -14.33846   -14.33847    -9.91974     0.00003    -0.00003    -0.00006
  -------------------------------------------------------------------------------------
  Total      10.76529    10.76585    10.48175    -0.00048     0.00081     0.00140
  in kB       2.99583     2.99599     2.91693    -0.00013     0.00023     0.00039
  external pressure =        2.97 kB  Pullay stress =        0.00 kB



--------------------------------------------------------------------------------------------------------



  FREE ENERGIE OF THE ION-ELECTRON SYSTEM (eV)
  ---------------------------------------------------
  free  energy   TOTEN  =      -376.58188741 eV

  energy  without entropy=     -376.55812627  energy(sigma->0) =     -376.57000684
 
 d Force = 0.1039579E-03[-0.136E-03, 0.344E-03]  d Energy = 0.1911168E-03-0.872E-04
 d Force = 0.3619645E+02[ 0.362E+02, 0.362E+02]  d Ewald  = 0.3619645E+02-0.453E-06


--------------------------------------------------------------------------------------------------------


    POTLOK:  cpu time    0.1641: real time    0.1646


--------------------------------------------------------------------------------------------------------


 Quasi-Newton relaxation of ions (Broydens 2nd method)
  g(Force)  = 0.166E-04   g(Stress)= 0.000E+00

 retain information from N=  1 steps
 eigenvalues of (default step * inverse Hessian matrix)
  average eigenvalue of G=   2.8890
 eigenvalue spectrum of G is  2.8890


--------------------------------------------------------------------------------------------------------


  
 reached required accuracy - stopping structural energy minimisation
     LOOP+:  cpu time  270.3520: real time  270.4533
    4ORBIT:  cpu time    0.0000: real time    0.0000

 total amount of memory used by VASP MPI-rank0   303275. kBytes
=======================================================================

   base      :      30000. kBytes
   nonlr-proj:      50858. kBytes
   fftplans  :       9705. kBytes
   grid      :      47350. kBytes
   one-center:       2239. kBytes
   wavefun   :     163123. kBytes
 
  
  
 General timing and accounting informations for this job:
 ========================================================
  
                  Total CPU time used (sec):     7569.981
                            User time (sec):     7534.275
                          System time (sec):       35.706
                         Elapsed time (sec):     7583.662
  
                   Maximum memory used (kb):      736672.
                   Average memory used (kb):           0.
  
                          Minor page faults:      3472593
                          Major page faults:            0
                 Voluntary context switches:         4576
