 vasp.5.4.4.18Apr17-6-g9f103f2a35 (build Jun 30 2017 19:19:18) complex          
  
 executed on         MareNostrum4 date 2022.04.19  22:26:16
 running on   48 total cores
 distrk:  each k-point on   48 cores,    1 groups
 distr:  one band on NCORES_PER_BAND=   1 cores,   48 groups


--------------------------------------------------------------------------------------------------------


 INCAR:
 POTCAR:    PAW_PBE Ru 04Feb2005                  
 POTCAR:    PAW_PBE C 08Apr2002                   
 POTCAR:    PAW_PBE H 15Jun2001                   
 POTCAR:    PAW_PBE O 08Apr2002                   

 ----------------------------------------------------------------------------- 
|                                                                             |
|           W    W    AA    RRRRR   N    N  II  N    N   GGGG   !!!           |
|           W    W   A  A   R    R  NN   N  II  NN   N  G    G  !!!           |
|           W    W  A    A  R    R  N N  N  II  N N  N  G       !!!           |
|           W WW W  AAAAAA  RRRRR   N  N N  II  N  N N  G  GGG   !            |
|           WW  WW  A    A  R   R   N   NN  II  N   NN  G    G                |
|           W    W  A    A  R    R  N    N  II  N    N   GGGG   !!!           |
|                                                                             |
|      For optimal performance we recommend to set                            |
|        NCORE= 4 - approx SQRT( number of cores)                             |
|      NCORE specifies how many cores store one orbital (NPAR=cpu/NCORE).     |
|      This setting can  greatly improve the performance of VASP for DFT.     |
|      The default,   NCORE=1            might be grossly inefficient         |
|      on modern multi-core architectures or massively parallel machines.     |
|      Do your own testing !!!!                                               |
|      Unfortunately you need to use the default for GW and RPA calculations. |
|      (for HF NCORE is supported but not extensively tested yet)             |
|                                                                             |
 ----------------------------------------------------------------------------- 

 POTCAR:    PAW_PBE Ru 04Feb2005                  
  local pseudopotential read in
  partial core-charges read in
  partial kinetic energy density read in
  atomic valenz-charges read in
  non local Contribution for L=           2  read in
    real space projection operators read in
  non local Contribution for L=           2  read in
    real space projection operators read in
  non local Contribution for L=           0  read in
    real space projection operators read in
  non local Contribution for L=           0  read in
    real space projection operators read in
  non local Contribution for L=           1  read in
    real space projection operators read in
  non local Contribution for L=           1  read in
    real space projection operators read in
    PAW grid and wavefunctions read in
 
   number of l-projection  operators is LMAX  =           6
   number of lm-projection operators is LMMAX =          18
 
 POTCAR:    PAW_PBE C 08Apr2002                   
  local pseudopotential read in
  partial core-charges read in
  partial kinetic energy density read in
  atomic valenz-charges read in
  non local Contribution for L=           0  read in
    real space projection operators read in
  non local Contribution for L=           0  read in
    real space projection operators read in
  non local Contribution for L=           1  read in
    real space projection operators read in
  non local Contribution for L=           1  read in
    real space projection operators read in
    PAW grid and wavefunctions read in
 
   number of l-projection  operators is LMAX  =           4
   number of lm-projection operators is LMMAX =           8
 
 POTCAR:    PAW_PBE H 15Jun2001                   
  local pseudopotential read in
  atomic valenz-charges read in
  non local Contribution for L=           0  read in
    real space projection operators read in
  non local Contribution for L=           0  read in
    real space projection operators read in
  non local Contribution for L=           1  read in
    real space projection operators read in
    PAW grid and wavefunctions read in
 
   number of l-projection  operators is LMAX  =           3
   number of lm-projection operators is LMMAX =           5
 
 POTCAR:    PAW_PBE O 08Apr2002                   
  local pseudopotential read in
  partial core-charges read in
  partial kinetic energy density read in
  kinetic energy density of atom read in
  atomic valenz-charges read in
  non local Contribution for L=           0  read in
    real space projection operators read in
  non local Contribution for L=           0  read in
    real space projection operators read in
  non local Contribution for L=           1  read in
    real space projection operators read in
  non local Contribution for L=           1  read in
    real space projection operators read in
    PAW grid and wavefunctions read in
 
   number of l-projection  operators is LMAX  =           4
   number of lm-projection operators is LMMAX =           8
 
 Optimization of the real space projectors (new method)

 maximal supplied QI-value         = 13.98
 optimisation between [QCUT,QGAM] = [ 10.77, 21.68] = [ 32.47,131.56] Ry 
 Optimized for a Real-space Cutoff    1.51 Angstroem

   l    n(q)    QCUT    max X(q) W(low)/X(q) W(high)/X(q)  e(spline) 
   2      9    10.768    61.733    0.26E-03    0.97E-04    0.28E-06
   2      9    10.768    59.886    0.26E-03    0.10E-03    0.29E-06
   0     10    10.768    23.358    0.12E-03    0.28E-03    0.38E-06
   0     10    10.768    11.320    0.93E-04    0.23E-03    0.31E-06
   1      9    10.768    14.765    0.48E-03    0.21E-03    0.19E-06
   1      9    10.768     8.283    0.36E-03    0.16E-03    0.15E-06
 Optimization of the real space projectors (new method)

 maximal supplied QI-value         = 25.13
 optimisation between [QCUT,QGAM] = [ 10.81, 21.61] = [ 32.71,130.83] Ry 
 Optimized for a Real-space Cutoff    1.23 Angstroem

   l    n(q)    QCUT    max X(q) W(low)/X(q) W(high)/X(q)  e(spline) 
   0      8    10.807   115.676    0.36E-03    0.72E-03    0.24E-06
   0      8    10.807    87.132    0.35E-03    0.71E-03    0.24E-06
   1      7    10.807     4.429    0.19E-03    0.39E-03    0.11E-06
   1      7    10.807     2.733    0.14E-03    0.28E-03    0.13E-06
 Optimization of the real space projectors (new method)

 maximal supplied QI-value         = 34.20
 optimisation between [QCUT,QGAM] = [ 10.60, 21.55] = [ 31.48,130.03] Ry 
 Optimized for a Real-space Cutoff    1.23 Angstroem

   l    n(q)    QCUT    max X(q) W(low)/X(q) W(high)/X(q)  e(spline) 
   0      8    10.603    19.460    0.37E-03    0.59E-03    0.23E-06
   0      8    10.603    12.209    0.35E-03    0.56E-03    0.22E-06
   1      7    10.603     4.655    0.70E-04    0.28E-03    0.29E-06
 Optimization of the real space projectors (new method)

 maximal supplied QI-value         = 24.76
 optimisation between [QCUT,QGAM] = [ 10.64, 21.54] = [ 31.73,129.89] Ry 
 Optimized for a Real-space Cutoff    1.23 Angstroem

   l    n(q)    QCUT    max X(q) W(low)/X(q) W(high)/X(q)  e(spline) 
   0      8    10.645    20.381    0.38E-03    0.60E-03    0.15E-06
   0      8    10.645    15.268    0.40E-03    0.65E-03    0.17E-06
   1      7    10.645     5.964    0.30E-03    0.63E-03    0.18E-06
   1      7    10.645     5.382    0.24E-03    0.53E-03    0.16E-06
  PAW_PBE Ru 04Feb2005                  :
 energy of atom  1       EATOM= -454.8837
 kinetic energy error for atom=    0.0028 (will be added to EATOM!!)
  PAW_PBE C 08Apr2002                   :
 energy of atom  2       EATOM= -147.1560
 kinetic energy error for atom=    0.0116 (will be added to EATOM!!)
  PAW_PBE H 15Jun2001                   :
 energy of atom  3       EATOM=  -12.4884
 kinetic energy error for atom=    0.0045 (will be added to EATOM!!)
  PAW_PBE O 08Apr2002                   :
 energy of atom  4       EATOM= -432.3788
 kinetic energy error for atom=    0.0389 (will be added to EATOM!!)
 
 
 POSCAR: Ru  C  H  O                             
  positions in cartesian coordinates
  No initial velocities read in
 exchange correlation table for  LEXCH =        8
   RHO(1)=    0.500       N(1)  =     2000
   RHO(2)=  100.500       N(2)  =     4000
 


--------------------------------------------------------------------------------------------------------


 ion  position               nearest neighbor table
   1  0.048  0.167  0.200-  30 2.66  53 2.66  29 2.66   4 2.71   2 2.71  28 2.71   6 2.71   5 2.71
                            25 2.71
   2  0.048  0.417  0.200- 109 2.45  31 2.66  54 2.66  30 2.66   1 2.71   3 2.71   7 2.71  25 2.71
                             6 2.71  26 2.71
   3  0.048  0.667  0.200-  32 2.66  55 2.66  31 2.66   4 2.71   2 2.71  26 2.71   8 2.71  27 2.71
                             7 2.71
   4  0.048  0.917  0.200-  29 2.66  56 2.66  32 2.66   3 2.71   1 2.71  27 2.71   5 2.71  28 2.71
                             8 2.71
   5  0.190  0.167  0.200-  34 2.66  29 2.66  33 2.66  10 2.71   6 2.71   8 2.71   4 2.71   9 2.71
                             1 2.71
   6  0.190  0.417  0.200-  85 2.15  90 2.59  35 2.66  30 2.66  34 2.66  86 2.67  11 2.71   7 2.71
                             5 2.71   1 2.71  10 2.71   2 2.71
   7  0.190  0.667  0.200-  89 2.15  88 2.53  90 2.53  36 2.66  31 2.66  35 2.66  12 2.71   8 2.71
                             6 2.71   2 2.71  11 2.71   3 2.71
   8  0.190  0.917  0.200-  33 2.66  32 2.66  36 2.66   9 2.71   5 2.71   7 2.71   3 2.71  12 2.71
                             4 2.71
   9  0.333  0.167  0.200-  38 2.66  33 2.66  37 2.66   8 2.71  12 2.71  10 2.71  14 2.71   5 2.71
                            13 2.71
  10  0.333  0.417  0.200-  39 2.66  34 2.66  38 2.66  86 2.71   5 2.71   9 2.71  11 2.71  15 2.71
                             6 2.71  14 2.71
  11  0.333  0.667  0.200-  87 2.16  86 2.40  88 2.59  40 2.66  35 2.66  39 2.66   6 2.71  10 2.71
                            12 2.71  16 2.71   7 2.71  15 2.71
  12  0.333  0.917  0.200-  88 2.53  37 2.66  36 2.66  40 2.66   7 2.71   9 2.71  11 2.71  13 2.71
                             8 2.71  16 2.71
  13  0.476  0.167  0.200-  42 2.66  37 2.66  41 2.66  18 2.71  14 2.71  16 2.71  12 2.71  17 2.71
                             9 2.71
  14  0.476  0.417  0.200-  43 2.66  38 2.66  42 2.66  19 2.71  13 2.71  15 2.71   9 2.71  18 2.71
                            10 2.71
  15  0.476  0.667  0.200-  44 2.66  39 2.66  43 2.66  20 2.71  14 2.71  16 2.71  10 2.71  19 2.71
                            11 2.71
  16  0.476  0.917  0.200- 111 2.24  41 2.66  40 2.66  44 2.66  17 2.71  15 2.71  13 2.71  11 2.71
                            20 2.71  12 2.71
  17  0.619  0.167  0.200-  46 2.66  41 2.66  45 2.66  16 2.71  20 2.71  18 2.71  22 2.71  13 2.71
                            21 2.71
  18  0.619  0.417  0.200-  47 2.66  42 2.66  46 2.66  13 2.71  19 2.71  17 2.71  23 2.71  14 2.71
                            22 2.71
  19  0.619  0.667  0.200-  48 2.66  43 2.66  47 2.66  14 2.71  20 2.71  18 2.71  24 2.71  15 2.71
                            23 2.71
  20  0.619  0.917  0.200-  45 2.66  44 2.66  48 2.66  15 2.71  19 2.71  17 2.71  21 2.71  16 2.71
                            24 2.71
  21  0.762  0.167  0.200-  50 2.66  45 2.66  49 2.66  26 2.71  22 2.71  24 2.71  20 2.71  25 2.71
                            17 2.71
  22  0.762  0.417  0.200-  51 2.66  46 2.66  50 2.66  27 2.71  21 2.71  23 2.71  17 2.71  26 2.71
                            18 2.71
  23  0.762  0.667  0.200-  52 2.66  47 2.66  51 2.66  28 2.71  22 2.71  24 2.71  18 2.71  27 2.71
                            19 2.71
  24  0.762  0.917  0.200-  49 2.66  48 2.66  52 2.66  25 2.71  21 2.71  23 2.71  19 2.71  28 2.71
                            20 2.71
  25  0.905  0.167  0.200-  54 2.66  49 2.66  53 2.66  24 2.71  28 2.71  26 2.71   2 2.71  21 2.71
                             1 2.71
  26  0.905  0.417  0.200-  55 2.66  50 2.66  54 2.66  21 2.71  27 2.71  25 2.71   3 2.71  22 2.71
                             2 2.71
  27  0.905  0.667  0.200-  56 2.66  51 2.66  55 2.66  22 2.71  28 2.71  26 2.71   4 2.71  23 2.71
                             3 2.71
  28  0.905  0.917  0.200-  53 2.66  52 2.66  56 2.66  23 2.71  27 2.71  25 2.71   1 2.71  24 2.71
                             4 2.71
  29  0.095  0.083  0.100-   4 2.66   5 2.66   1 2.66  60 2.66  61 2.66  57 2.66  56 2.71  30 2.71
                            32 2.71  34 2.71  53 2.71  33 2.71
  30  0.095  0.333  0.100-   1 2.66   6 2.66   2 2.66  57 2.66  62 2.66  58 2.66  53 2.71  29 2.71
                            31 2.71  35 2.71  54 2.71  34 2.71
  31  0.095  0.583  0.100-   2 2.66   7 2.66   3 2.66  58 2.66  63 2.66  59 2.66  54 2.71  30 2.71
                            32 2.71  36 2.71  55 2.71  35 2.71
  32  0.095  0.833  0.100-   3 2.66   8 2.66   4 2.66  59 2.66  64 2.66  60 2.66  55 2.71  29 2.71
                            31 2.71  33 2.71  56 2.71  36 2.71
  33  0.238  0.083  0.100-   8 2.66   9 2.66   5 2.66  64 2.66  65 2.66  61 2.66  38 2.71  34 2.71
                            36 2.71  32 2.71  37 2.71  29 2.71
  34  0.238  0.333  0.100-   5 2.66  10 2.66   6 2.66  61 2.66  66 2.66  62 2.66  39 2.71  33 2.71
                            35 2.71  29 2.71  38 2.71  30 2.71
  35  0.238  0.583  0.100-   6 2.66  11 2.66   7 2.66  62 2.66  67 2.66  63 2.66  40 2.71  34 2.71
                            36 2.71  30 2.71  39 2.71  31 2.71
  36  0.238  0.833  0.100-   7 2.66  12 2.66   8 2.66  63 2.66  68 2.66  64 2.66  37 2.71  33 2.71
                            35 2.71  31 2.71  40 2.71  32 2.71
  37  0.381  0.083  0.100-  12 2.66  13 2.66   9 2.66  68 2.66  69 2.66  65 2.66  36 2.71  40 2.71
                            38 2.71  42 2.71  33 2.71  41 2.71
  38  0.381  0.333  0.100-   9 2.66  14 2.66  10 2.66  65 2.66  70 2.66  66 2.66  33 2.71  39 2.71
                            37 2.71  43 2.71  34 2.71  42 2.71
  39  0.381  0.583  0.100-  10 2.66  15 2.66  11 2.66  66 2.66  71 2.66  67 2.66  34 2.71  40 2.71
                            38 2.71  44 2.71  35 2.71  43 2.71
  40  0.381  0.833  0.100-  11 2.66  16 2.66  12 2.66  67 2.66  72 2.66  68 2.66  35 2.71  39 2.71
                            37 2.71  41 2.71  36 2.71  44 2.71
  41  0.524  0.083  0.100-  16 2.66  17 2.66  13 2.66  72 2.66  73 2.66  69 2.66  46 2.71  42 2.71
                            44 2.71  40 2.71  45 2.71  37 2.71
  42  0.524  0.333  0.100-  13 2.66  18 2.66  14 2.66  69 2.66  74 2.66  70 2.66  47 2.71  41 2.71
                            43 2.71  37 2.71  46 2.71  38 2.71
  43  0.524  0.583  0.100-  14 2.66  19 2.66  15 2.66  70 2.66  75 2.66  71 2.66  48 2.71  42 2.71
                            44 2.71  38 2.71  47 2.71  39 2.71
  44  0.524  0.833  0.100-  15 2.66  20 2.66  16 2.66  71 2.66  76 2.66  72 2.66  45 2.71  41 2.71
                            43 2.71  39 2.71  48 2.71  40 2.71
  45  0.667  0.083  0.100-  20 2.66  21 2.66  17 2.66  76 2.66  77 2.66  73 2.66  44 2.71  48 2.71
                            46 2.71  50 2.71  41 2.71  49 2.71
  46  0.667  0.333  0.100-  17 2.66  22 2.66  18 2.66  73 2.66  78 2.66  74 2.66  41 2.71  47 2.71
                            45 2.71  51 2.71  42 2.71  50 2.71
  47  0.667  0.583  0.100-  18 2.66  23 2.66  19 2.66  74 2.66  79 2.66  75 2.66  42 2.71  48 2.71
                            46 2.71  52 2.71  43 2.71  51 2.71
  48  0.667  0.833  0.100-  19 2.66  24 2.66  20 2.66  75 2.66  80 2.66  76 2.66  43 2.71  47 2.71
                            45 2.71  49 2.71  44 2.71  52 2.71
  49  0.810  0.083  0.100-  24 2.66  25 2.66  21 2.66  80 2.66  81 2.66  77 2.66  52 2.71  50 2.71
                            54 2.71  48 2.71  45 2.71  53 2.71
  50  0.810  0.333  0.100-  21 2.66  26 2.66  22 2.66  77 2.66  82 2.66  78 2.66  51 2.71  49 2.71
                            55 2.71  45 2.71  46 2.71  54 2.71
  51  0.810  0.583  0.100-  22 2.66  27 2.66  23 2.66  78 2.66  83 2.66  79 2.66  52 2.71  50 2.71
                            56 2.71  46 2.71  47 2.71  55 2.71
  52  0.810  0.833  0.100-  23 2.66  28 2.66  24 2.66  79 2.66  84 2.66  80 2.66  51 2.71  49 2.71
                            53 2.71  47 2.71  56 2.71  48 2.71
  53  0.952  0.083  0.100-  28 2.66   1 2.66  25 2.66  84 2.66  57 2.66  81 2.66  30 2.71  56 2.71
                            54 2.71  52 2.71  29 2.71  49 2.71
  54  0.952  0.333  0.100-  25 2.66   2 2.66  26 2.66  81 2.66  58 2.66  82 2.66  31 2.71  55 2.71
                            53 2.71  49 2.71  30 2.71  50 2.71
  55  0.952  0.583  0.100-  26 2.66   3 2.66  27 2.66  82 2.66  59 2.66  83 2.66  32 2.71  56 2.71
                            54 2.71  50 2.71  31 2.71  51 2.71
  56  0.952  0.833  0.100-  27 2.66   4 2.66  28 2.66  83 2.66  60 2.66  84 2.66  29 2.71  55 2.71
                            53 2.71  51 2.71  32 2.71  52 2.71
  57  0.048  0.167  0.000-  30 2.66  53 2.66  29 2.66  58 2.71  60 2.71  62 2.71  84 2.71  81 2.71
                            61 2.71
  58  0.048  0.417  0.000-  31 2.66  54 2.66  30 2.66  57 2.71  59 2.71  63 2.71  81 2.71  62 2.71
                            82 2.71
  59  0.048  0.667  0.000-  32 2.66  55 2.66  31 2.66  58 2.71  60 2.71  64 2.71  82 2.71  63 2.71
                            83 2.71
  60  0.048  0.917  0.000-  29 2.66  56 2.66  32 2.66  57 2.71  59 2.71  61 2.71  83 2.71  64 2.71
                            84 2.71
  61  0.190  0.167  0.000-  34 2.66  29 2.66  33 2.66  66 2.71  64 2.71  62 2.71  60 2.71  65 2.71
                            57 2.71
  62  0.190  0.417  0.000-  35 2.66  30 2.66  34 2.66  67 2.71  63 2.71  61 2.71  57 2.71  66 2.71
                            58 2.71
  63  0.190  0.667  0.000-  36 2.66  31 2.66  35 2.66  68 2.71  64 2.71  62 2.71  58 2.71  67 2.71
                            59 2.71
  64  0.190  0.917  0.000-  33 2.66  32 2.66  36 2.66  65 2.71  63 2.71  61 2.71  59 2.71  68 2.71
                            60 2.71
  65  0.333  0.167  0.000-  38 2.66  33 2.66  37 2.66  64 2.71  66 2.71  68 2.71  70 2.71  61 2.71
                            69 2.71
  66  0.333  0.417  0.000-  39 2.66  34 2.66  38 2.66  61 2.71  65 2.71  67 2.71  71 2.71  62 2.71
                            70 2.71
  67  0.333  0.667  0.000-  40 2.66  35 2.66  39 2.66  62 2.71  66 2.71  68 2.71  72 2.71  63 2.71
                            71 2.71
  68  0.333  0.917  0.000-  37 2.66  36 2.66  40 2.66  63 2.71  65 2.71  67 2.71  69 2.71  64 2.71
                            72 2.71
  69  0.476  0.167  0.000-  42 2.66  37 2.66  41 2.66  74 2.71  72 2.71  70 2.71  68 2.71  73 2.71
                            65 2.71
  70  0.476  0.417  0.000-  43 2.66  38 2.66  42 2.66  75 2.71  71 2.71  69 2.71  65 2.71  74 2.71
                            66 2.71
  71  0.476  0.667  0.000-  44 2.66  39 2.66  43 2.66  76 2.71  72 2.71  70 2.71  66 2.71  75 2.71
                            67 2.71
  72  0.476  0.917  0.000-  41 2.66  40 2.66  44 2.66  73 2.71  71 2.71  69 2.71  67 2.71  76 2.71
                            68 2.71
  73  0.619  0.167  0.000-  46 2.66  41 2.66  45 2.66  72 2.71  74 2.71  76 2.71  78 2.71  69 2.71
                            77 2.71
  74  0.619  0.417  0.000-  47 2.66  42 2.66  46 2.66  69 2.71  73 2.71  75 2.71  79 2.71  70 2.71
                            78 2.71
  75  0.619  0.667  0.000-  48 2.66  43 2.66  47 2.66  70 2.71  74 2.71  76 2.71  80 2.71  71 2.71
                            79 2.71
  76  0.619  0.917  0.000-  45 2.66  44 2.66  48 2.66  71 2.71  73 2.71  75 2.71  77 2.71  72 2.71
                            80 2.71
  77  0.762  0.167  0.000-  50 2.66  45 2.66  49 2.66  82 2.71  80 2.71  78 2.71  76 2.71  81 2.71
                            73 2.71
  78  0.762  0.417  0.000-  51 2.66  46 2.66  50 2.66  83 2.71  79 2.71  77 2.71  73 2.71  82 2.71
                            74 2.71
  79  0.762  0.667  0.000-  52 2.66  47 2.66  51 2.66  84 2.71  80 2.71  78 2.71  74 2.71  83 2.71
                            75 2.71
  80  0.762  0.917  0.000-  49 2.66  48 2.66  52 2.66  81 2.71  79 2.71  77 2.71  75 2.71  84 2.71
                            76 2.71
  81  0.905  0.167  0.000-  54 2.66  49 2.66  53 2.66  80 2.71  82 2.71  84 2.71  58 2.71  77 2.71
                            57 2.71
  82  0.905  0.417  0.000-  55 2.66  50 2.66  54 2.66  77 2.71  81 2.71  83 2.71  59 2.71  78 2.71
                            58 2.71
  83  0.905  0.667  0.000-  56 2.66  51 2.66  55 2.66  78 2.71  82 2.71  84 2.71  60 2.71  79 2.71
                            59 2.71
  84  0.905  0.917  0.000-  53 2.66  52 2.66  56 2.66  79 2.71  81 2.71  83 2.71  57 2.71  80 2.71
                            60 2.71
  85  0.204  0.444  0.300- 110 1.41  90 1.45  86 1.47   6 2.15
  86  0.293  0.533  0.296-  95 1.10  87 1.45  85 1.47  11 2.40   6 2.67  10 2.71
  87  0.334  0.687  0.300-  86 1.45  88 1.46  92 1.52  11 2.16
  88  0.284  0.753  0.294-  96 1.10  89 1.45  87 1.46   7 2.53  12 2.53  11 2.59
  89  0.196  0.670  0.300-  97 1.09  90 1.43  88 1.45   7 2.15
  90  0.158  0.519  0.299- 109 1.38  89 1.43  85 1.45   7 2.53   6 2.59
  91  0.203  0.241  0.348- 100 1.10  99 1.10 101 1.12 110 1.42
  92  0.414  0.773  0.335- 102 1.11 111 1.46  87 1.52  93 1.52
  93  0.464  0.701  0.346- 103 1.10 108 1.12  92 1.52  94 1.53
  94  0.542  0.792  0.383- 106 1.10 105 1.10 112 1.45  93 1.53
  95  0.327  0.481  0.310-  86 1.10
  96  0.312  0.866  0.308-  88 1.10
  97  0.162  0.717  0.320-  89 1.09
  98  0.062  0.343  0.321- 109 0.99
  99  0.260  0.296  0.374-  91 1.10
 100  0.158  0.144  0.372-  91 1.10
 101  0.217  0.211  0.301-  91 1.12
 102  0.399  0.799  0.382-  92 1.11
 103  0.427  0.601  0.372-  93 1.10
 104  0.518  0.952  0.322- 111 1.01
 105  0.527  0.806  0.431-  94 1.10
 106  0.578  0.738  0.385-  94 1.10
 107  0.624  0.933  0.323- 112 0.99
 108  0.480  0.670  0.301-  93 1.12
 109  0.076  0.442  0.312-  98 0.99  90 1.38   2 2.45
 110  0.167  0.327  0.341-  85 1.41  91 1.42
 111  0.462  0.910  0.304- 104 1.01  92 1.46  16 2.24
 112  0.591  0.934  0.359- 107 0.99  94 1.45
 
  Warning from LATTYP: Monoclinic adjustement (A1->A3, A2->A1, A3->A2)!
  Warning from LATTYP: Got some problem with cell dimensions!
  Tried to take original basis but could not verify dimensions!
  LATTYP: Found a simple monoclinic cell.
 ALAT       =    20.4796808342
 B/A-ratio  =     1.0467134775
 C/A-ratio  =     1.7371079010
 COS(beta)  =    -0.9695485959
  
  Lattice vectors:
  
 A1 = (  -8.1377999784, -18.7934440320,   0.0000000000)
 A2 = (   0.0000000000,   0.0000000000, -21.4363579450)
 A3 = (  21.7007999424,  28.1901660480,   0.0000000000)


Analysis of symmetry for initial positions (statically):
=====================================================================
 Subroutine PRICEL returns:
 Original cell was already a primitive cell.
 

 Routine SETGRP: Setting up the symmetry group for a 
 simple monoclinic supercell.


 Subroutine GETGRP returns: Found  1 space group operations
 (whereof  1 operations were pure point group operations)
 out of a pool of  4 trial point group operations.


The static configuration has the point symmetry C_1 .


Analysis of symmetry for dynamics (positions and initial velocities):
=====================================================================
 Subroutine PRICEL returns:
 Original cell was already a primitive cell.
 

 Routine SETGRP: Setting up the symmetry group for a 
 simple monoclinic supercell.


 Subroutine GETGRP returns: Found  1 space group operations
 (whereof  1 operations were pure point group operations)
 out of a pool of  4 trial point group operations.


The dynamic configuration has the point symmetry C_1 .


Analysis of constrained symmetry for selective dynamics:
=====================================================================
 Subroutine PRICEL returns:
 Original cell was already a primitive cell.
 

 Routine SETGRP: Setting up the symmetry group for a 
 simple monoclinic supercell.


 Subroutine GETGRP returns: Found  1 space group operations
 (whereof  1 operations were pure point group operations)
 out of a pool of  4 trial point group operations.


The constrained configuration has the point symmetry C_1 .


 Subroutine INISYM returns: Found  1 space group operations
 (whereof  1 operations are pure point group operations),
 and found     1 'primitive' translations

 
 
 KPOINTS: K-POINTS                                

Automatic generation of k-mesh.
Space group operators:
 irot       det(A)        alpha          n_x          n_y          n_z        tau_x        tau_y        tau_z
    1     1.000000     0.000000     1.000000     0.000000     0.000000     0.000000     0.000000     0.000000
 
 Subroutine IBZKPT returns following result:
 ===========================================
 
 Found      5 irreducible k-points:
 
 Following reciprocal coordinates:
            Coordinates               Weight
  0.000000  0.000000  0.000000      1.000000
  0.333333  0.000000  0.000000      2.000000
  0.000000  0.333333  0.000000      2.000000
  0.333333  0.333333  0.000000      2.000000
 -0.333333  0.333333  0.000000      2.000000
 
 Following cartesian coordinates:
            Coordinates               Weight
  0.000000  0.000000  0.000000      1.000000
  0.017555  0.010135  0.000000      2.000000
  0.000000  0.035473  0.000000      2.000000
  0.017555  0.045609  0.000000      2.000000
 -0.017555  0.025338  0.000000      2.000000
 


--------------------------------------------------------------------------------------------------------




 Dimension of arrays:
   k-points           NKPTS =      5   k-points in BZ     NKDIM =      5   number of bands    NBANDS=    480
   number of dos      NEDOS =    301   number of ions     NIONS =    112
   non local maximal  LDIM  =      6   non local SUM 2l+1 LMDIM =     18
   total plane-waves  NPLWV = 627200
   max r-space proj   IRMAX =   2409   max aug-charges    IRDMAX=  11289
   dimension x,y,z NGX =   100 NGY =   56 NGZ =  112
   dimension x,y,z NGXF=   200 NGYF=  112 NGZF=  224
   support grid    NGXF=   200 NGYF=  112 NGZF=  224
   ions per type =              84  10  14   4
   NGX,Y,Z   is equivalent  to a cutoff of   8.76,  8.58,  8.69 a.u.
   NGXF,Y,Z  is equivalent  to a cutoff of  17.51, 17.16, 17.37 a.u.

 SYSTEM =  x                                       
 POSCAR =  Ru  C  H  O                             

 Startparameter for this run:
   NWRITE =      0    write-flag & timer
   PREC   = normal    normal or accurate (medium, high low for compatibility)
   ISTART =      0    job   : 0-new  1-cont  2-samecut
   ICHARG =      2    charge: 1-file 2-atom 10-const
   ISPIN  =      1    spin polarized calculation?
   LNONCOLLINEAR =      F non collinear calculations
   LSORBIT =      F    spin-orbit coupling
   INIWAV =      1    electr: 0-lowe 1-rand  2-diag
   LASPH  =      F    aspherical Exc in radial PAW
   METAGGA=      F    non-selfconsistent MetaGGA calc.

 Electronic Relaxation 1
   ENCUT  =  450.0 eV  33.07 Ry    5.75 a.u.  32.84 18.77 37.08*2*pi/ulx,y,z
   ENINI  =  450.0     initial cutoff
   ENAUG  =  644.9 eV  augmentation charge cutoff
   NELM   =     50;   NELMIN=  5; NELMDL= -7     # of ELM steps 
   EDIFF  = 0.1E-04   stopping-criterion for ELM
   LREAL  =      T    real-space projection
   NLSPLINE    = F    spline interpolate recip. space projectors
   LCOMPAT=      F    compatible to vasp.4.4
   GGA_COMPAT  = T    GGA compatible to vasp.4.4-vasp.4.6
   LMAXPAW     = -100 max onsite density
   LMAXMIX     =    2 max onsite mixed and CHGCAR
   VOSKOWN=      0    Vosko Wilk Nusair interpolation
   ROPT   =   -0.00050  -0.00050  -0.00050  -0.00050
 Ionic relaxation
   EDIFFG = -.2E-01   stopping-criterion for IOM
   NSW    =    300    number of steps for IOM
   NBLOCK =      1;   KBLOCK =    300    inner block; outer block 
   IBRION =      2    ionic relax: 0-MD 1-quasi-New 2-CG
   NFREE  =      2    steps in history (QN), initial steepest desc. (CG)
   ISIF   =      2    stress and relaxation
   IWAVPR =     11    prediction:  0-non 1-charg 2-wave 3-comb
   ISYM   =      2    0-nonsym 1-usesym 2-fastsym
   LCORR  =      T    Harris-Foulkes like correction to forces

   POTIM  = 0.1500    time-step for ionic-motion
   TEIN   =    0.0    initial temperature
   TEBEG  =    0.0;   TEEND  =   0.0 temperature during run
   SMASS  =  -3.00    Nose mass-parameter (am)
   estimated Nose-frequenzy (Omega)   =  0.10E-29 period in steps =****** mass=  -0.824E-26a.u.
   SCALEE = 1.0000    scale energy and forces
   NPACO  =    256;   APACO  = 16.0  distance and # of slots for P.C.
   PSTRESS=    0.0 pullay stress

  Mass of Ions in am
   POMASS = 101.07 12.01  1.00 16.00
  Ionic Valenz
   ZVAL   =   8.00  4.00  1.00  6.00
  Atomic Wigner-Seitz radii
   RWIGS  =  -1.00 -1.00 -1.00 -1.00
  virtual crystal weights 
   VCA    =   1.00  1.00  1.00  1.00
   NELECT =     750.0000    total number of electrons
   NUPDOWN=      -1.0000    fix difference up-down

 DOS related values:
   EMIN   =  10.00;   EMAX   =-10.00  energy-range for DOS
   EFERMI =   0.00
   ISMEAR =     0;   SIGMA  =   0.03  broadening in eV -4-tet -1-fermi 0-gaus

 Electronic relaxation 2 (details)
   IALGO  =     68    algorithm
   LDIAG  =      T    sub-space diagonalisation (order eigenvalues)
   LSUBROT=      F    optimize rotation matrix (better conditioning)
   TURBO    =      0    0=normal 1=particle mesh
   IRESTART =      0    0=no restart 2=restart with 2 vectors
   NREBOOT  =      0    no. of reboots
   NMIN     =      0    reboot dimension
   EREF     =   0.00    reference energy to select bands
   IMIX   =      4    mixing-type and parameters
     AMIX     =   0.40;   BMIX     =  1.00
     AMIX_MAG =   1.60;   BMIX_MAG =  1.00
     AMIN     =   0.10
     WC   =   100.;   INIMIX=   1;  MIXPRE=   1;  MAXMIX= -45

 Intra band minimization:
   WEIMIN = 0.0010     energy-eigenvalue tresh-hold
   EBREAK =  0.52E-08  absolut break condition
   DEPER  =   0.30     relativ break condition  

   TIME   =   0.40     timestep for ELM

  volume/ion in A,a.u.               =      34.15       230.46
  Fermi-wavevector in a.u.,A,eV,Ry     =   0.951097  1.797313 12.307636  0.904586
  Thomas-Fermi vector in A             =   2.079535
 
 Write flags
   LWAVE        =      F    write WAVECAR
   LDOWNSAMPLE  =      F    k-point downsampling of WAVECAR
   LCHARG       =      F    write CHGCAR
   LVTOT        =      F    write LOCPOT, total local potential
   LVHAR        =      F    write LOCPOT, Hartree potential only
   LELF         =      F    write electronic localiz. function (ELF)
   LORBIT       =      0    0 simple, 1 ext, 2 COOP (PROOUT), +10 PAW based schemes


 Dipole corrections
   LMONO  =      F    monopole corrections only (constant potential shift)
   LDIPOL =      T    correct potential (dipole corrections)
   IDIPOL =      3    1-x, 2-y, 3-z, 4-all directions 
   EPSILON=  1.0000000 bulk dielectric constant

 Exchange correlation treatment:
   GGA     =    PE    GGA type
   LEXCH   =     8    internal setting for exchange type
   VOSKOWN=      0    Vosko Wilk Nusair interpolation
   LHFCALC =     F    Hartree Fock is set to
   LHFONE  =     F    Hartree Fock one center treatment
   AEXX    =    0.0000 exact exchange contribution

 Linear response parameters
   LEPSILON=     F    determine dielectric tensor
   LRPA    =     F    only Hartree local field effects (RPA)
   LNABLA  =     F    use nabla operator in PAW spheres
   LVEL    =     F    velocity operator in full k-point grid
   LINTERFAST=   F  fast interpolation
   KINTER  =     0    interpolate to denser k-point grid
   CSHIFT  =0.1000    complex shift for real part using Kramers Kronig
   OMEGAMAX=  -1.0    maximum frequency
   DEG_THRESHOLD= 0.2000000E-02 threshold for treating states as degnerate
   RTIME   =   -0.100 relaxation time in fs
  (WPLASMAI=    0.000 imaginary part of plasma frequency in eV, 0.658/RTIME)
   DFIELD  = 0.0000000 0.0000000 0.0000000 field for delta impulse in time
 
 Orbital magnetization related:
   ORBITALMAG=     F  switch on orbital magnetization
   LCHIMAG   =     F  perturbation theory with respect to B field
   DQ        =  0.001000  dq finite difference perturbation B field
   LLRAUG    =     F  two centre corrections for induced B field



--------------------------------------------------------------------------------------------------------


 conjugate gradient relaxation of ions
   using selective dynamics as specified on POSCAR
   WARNING: If single coordinates had been selected the selection of coordinates
            is made according to the corresponding   d i r e c t   coordinates!
            Don't support selection of single cartesian coordinates -- sorry ...
  !
 charge density and potential will be updated during run
 non-spin polarized calculation
 RMM-DIIS sequential band-by-band and
  variant of blocked Davidson during initial phase
 perform sub-space diagonalisation
    before iterative eigenvector-optimisation
 modified Broyden-mixing scheme, WC =      100.0
 initial mixing is a Kerker type mixing with AMIX =  0.4000 and BMIX =      1.0000
 Hartree-type preconditioning will be used
 using additional bands          105
 real space projection scheme for non local part
 use partial core corrections
 calculate Harris-corrections to forces 
   (improved forces if not selfconsistent)
 use gradient corrections 
 use of overlap-Matrix (Vanderbilt PP)
 Gauss-broadening in eV      SIGMA  =   0.03


--------------------------------------------------------------------------------------------------------


  energy-cutoff  :      450.00
  volume of cell :     3824.82
      direct lattice vectors                 reciprocal lattice vectors
    18.988199950  0.000000000  0.000000000     0.052664286  0.030405740  0.000000000
    -5.425199986  9.396722016  0.000000000     0.000000000  0.106420090  0.000000000
     0.000000000  0.000000000 21.436357945     0.000000000  0.000000000  0.046649716

  length of vectors
    18.988199950 10.850399971 21.436357945     0.060811480  0.106420090  0.046649716


 
 k-points in units of 2pi/SCALE and weight: K-POINTS                                
   0.00000000  0.00000000  0.00000000       0.111
   0.01755476  0.01013525  0.00000000       0.222
   0.00000000  0.03547336  0.00000000       0.222
   0.01755476  0.04560861  0.00000000       0.222
  -0.01755476  0.02533812  0.00000000       0.222
 
 k-points in reciprocal lattice and weights: K-POINTS                                
   0.00000000  0.00000000  0.00000000       0.111
   0.33333333  0.00000000  0.00000000       0.222
   0.00000000  0.33333333  0.00000000       0.222
   0.33333333  0.33333333  0.00000000       0.222
  -0.33333333  0.33333333  0.00000000       0.222
 
 position of ions in fractional coordinates (direct lattice) 
   0.04761857  0.16666751  0.20017397
   0.04761857  0.41666751  0.20017397
   0.04761857  0.66666751  0.20017397
   0.04761857  0.91666751  0.20017397
   0.19047572  0.16666751  0.20017397
   0.19047572  0.41666751  0.20017397
   0.19047572  0.66666751  0.20017397
   0.19047572  0.91666751  0.20017397
   0.33333286  0.16666751  0.20017397
   0.33333286  0.41666751  0.20017397
   0.33333286  0.66666751  0.20017397
   0.33333286  0.91666751  0.20017397
   0.47619000  0.16666751  0.20017397
   0.47619000  0.41666751  0.20017397
   0.47619000  0.66666751  0.20017397
   0.47619000  0.91666751  0.20017397
   0.61904714  0.16666751  0.20017397
   0.61904714  0.41666751  0.20017397
   0.61904714  0.66666751  0.20017397
   0.61904714  0.91666751  0.20017397
   0.76190429  0.16666751  0.20017397
   0.76190429  0.41666751  0.20017397
   0.76190429  0.66666751  0.20017397
   0.76190429  0.91666751  0.20017397
   0.90476143  0.16666751  0.20017397
   0.90476143  0.41666751  0.20017397
   0.90476143  0.66666751  0.20017397
   0.90476143  0.91666751  0.20017397
   0.09523857  0.08333250  0.10009367
   0.09523857  0.33333250  0.10009367
   0.09523857  0.58333250  0.10009367
   0.09523857  0.83333250  0.10009367
   0.23809572  0.08333250  0.10009367
   0.23809572  0.33333250  0.10009367
   0.23809572  0.58333250  0.10009367
   0.23809572  0.83333250  0.10009367
   0.38095286  0.08333250  0.10009367
   0.38095286  0.33333250  0.10009367
   0.38095286  0.58333250  0.10009367
   0.38095286  0.83333250  0.10009367
   0.52381000  0.08333250  0.10009367
   0.52381000  0.33333250  0.10009367
   0.52381000  0.58333250  0.10009367
   0.52381000  0.83333250  0.10009367
   0.66666715  0.08333250  0.10009367
   0.66666715  0.33333250  0.10009367
   0.66666715  0.58333250  0.10009367
   0.66666715  0.83333250  0.10009367
   0.80952429  0.08333250  0.10009367
   0.80952429  0.33333250  0.10009367
   0.80952429  0.58333250  0.10009367
   0.80952429  0.83333250  0.10009367
   0.95238143  0.08333250  0.10009367
   0.95238143  0.33333250  0.10009367
   0.95238143  0.58333250  0.10009367
   0.95238143  0.83333250  0.10009367
   0.04761857  0.16666751  0.00000002
   0.04761857  0.41666751  0.00000002
   0.04761857  0.66666751  0.00000002
   0.04761857  0.91666751  0.00000002
   0.19047572  0.16666751  0.00000002
   0.19047572  0.41666751  0.00000002
   0.19047572  0.66666751  0.00000002
   0.19047572  0.91666751  0.00000002
   0.33333286  0.16666751  0.00000002
   0.33333286  0.41666751  0.00000002
   0.33333286  0.66666751  0.00000002
   0.33333286  0.91666751  0.00000002
   0.47619000  0.16666751  0.00000002
   0.47619000  0.41666751  0.00000002
   0.47619000  0.66666751  0.00000002
   0.47619000  0.91666751  0.00000002
   0.61904714  0.16666751  0.00000002
   0.61904714  0.41666751  0.00000002
   0.61904714  0.66666751  0.00000002
   0.61904714  0.91666751  0.00000002
   0.76190429  0.16666751  0.00000002
   0.76190429  0.41666751  0.00000002
   0.76190429  0.66666751  0.00000002
   0.76190429  0.91666751  0.00000002
   0.90476143  0.16666751  0.00000002
   0.90476143  0.41666751  0.00000002
   0.90476143  0.66666751  0.00000002
   0.90476143  0.91666751  0.00000002
   0.20416235  0.44432900  0.29967943
   0.29325283  0.53328598  0.29574253
   0.33412229  0.68705318  0.30021529
   0.28379235  0.75334769  0.29387036
   0.19587856  0.67035713  0.30016443
   0.15848561  0.51893463  0.29868749
   0.20273310  0.24094487  0.34765149
   0.41389607  0.77269221  0.33522191
   0.46413691  0.70063789  0.34613768
   0.54224152  0.79186556  0.38330898
   0.32745747  0.48112482  0.31027410
   0.31240767  0.86607160  0.30804203
   0.16181183  0.71729508  0.31999685
   0.06242425  0.34300682  0.32069456
   0.26017743  0.29623590  0.37419949
   0.15833559  0.14422951  0.37202783
   0.21704035  0.21123325  0.30119233
   0.39879428  0.79896443  0.38158295
   0.42739174  0.60063000  0.37200822
   0.51806718  0.95152766  0.32234425
   0.52688162  0.80644966  0.43126451
   0.57847461  0.73834945  0.38545967
   0.62411372  0.93290822  0.32346632
   0.48038089  0.66985983  0.30085648
   0.07627772  0.44221597  0.31244492
   0.16674463  0.32747116  0.34077613
   0.46195191  0.90954030  0.30386565
   0.59117371  0.93433795  0.35887461
 
 position of ions in cartesian coordinates  (Angst):
  -0.00001358  1.56612822  4.29100095
  -1.35631358  3.91530873  4.29100095
  -2.71261357  6.26448923  4.29100095
  -4.06891357  8.61366974  4.29100095
   2.71258641  1.56612822  4.29100095
   1.35628642  3.91530873  4.29100095
  -0.00001358  6.26448923  4.29100095
  -1.35631358  8.61366974  4.29100095
   5.42518640  1.56612822  4.29100095
   4.06888641  3.91530873  4.29100095
   2.71258641  6.26448923  4.29100095
   1.35628642  8.61366974  4.29100095
   8.13778640  1.56612822  4.29100095
   6.78148640  3.91530873  4.29100095
   5.42518640  6.26448923  4.29100095
   4.06888641  8.61366974  4.29100095
  10.85038639  1.56612822  4.29100095
   9.49408639  3.91530873  4.29100095
   8.13778640  6.26448923  4.29100095
   6.78148640  8.61366974  4.29100095
  13.56298638  1.56612822  4.29100095
  12.20668639  3.91530873  4.29100095
  10.85038639  6.26448923  4.29100095
   9.49408639  8.61366974  4.29100095
  16.27558638  1.56612822  4.29100095
  14.91928638  3.91530873  4.29100095
  13.56298638  6.26448923  4.29100095
  12.20668639  8.61366974  4.29100095
   1.35631362  0.78305235  2.14564370
   0.00001362  3.13223285  2.14564370
  -1.35628637  5.48141336  2.14564370
  -2.71258637  7.83059386  2.14564370
   4.06891361  0.78305235  2.14564370
   2.71261361  3.13223285  2.14564370
   1.35631362  5.48141336  2.14564370
   0.00001362  7.83059386  2.14564370
   6.78151360  0.78305235  2.14564370
   5.42521361  3.13223285  2.14564370
   4.06891361  5.48141336  2.14564370
   2.71261361  7.83059386  2.14564370
   9.49411360  0.78305235  2.14564370
   8.13781360  3.13223285  2.14564370
   6.78151360  5.48141336  2.14564370
   5.42521361  7.83059386  2.14564370
  12.20671359  0.78305235  2.14564370
  10.85041359  3.13223285  2.14564370
   9.49411360  5.48141336  2.14564370
   8.13781360  7.83059386  2.14564370
  14.91931358  0.78305235  2.14564370
  13.56301359  3.13223285  2.14564370
  12.20671359  5.48141336  2.14564370
  10.85041359  7.83059386  2.14564370
  17.63191357  0.78305235  2.14564370
  16.27561358  3.13223285  2.14564370
  14.91931358  5.48141336  2.14564370
  13.56301359  7.83059386  2.14564370
  -0.00001358  1.56612822  0.00000046
  -1.35631358  3.91530873  0.00000046
  -2.71261357  6.26448923  0.00000046
  -4.06891357  8.61366974  0.00000046
   2.71258641  1.56612822  0.00000046
   1.35628642  3.91530873  0.00000046
  -0.00001358  6.26448923  0.00000046
  -1.35631358  8.61366974  0.00000046
   5.42518640  1.56612822  0.00000046
   4.06888641  3.91530873  0.00000046
   2.71258641  6.26448923  0.00000046
   1.35628642  8.61366974  0.00000046
   8.13778640  1.56612822  0.00000046
   6.78148640  3.91530873  0.00000046
   5.42518640  6.26448923  0.00000046
   4.06888641  8.61366974  0.00000046
  10.85038639  1.56612822  0.00000046
   9.49408639  3.91530873  0.00000046
   8.13778640  6.26448923  0.00000046
   6.78148640  8.61366974  0.00000046
  13.56298638  1.56612822  0.00000046
  12.20668639  3.91530873  0.00000046
  10.85038639  6.26448923  0.00000046
   9.49408639  8.61366974  0.00000046
  16.27558638  1.56612822  0.00000046
  14.91928638  3.91530873  0.00000046
  13.56298638  6.26448923  0.00000046
  12.20668639  8.61366974  0.00000046
   1.46610178  4.17523606  6.42403558
   2.67516026  5.01114009  6.33964265
   2.61698006  6.45604770  6.43552233
   1.30164407  7.07899883  6.29951027
   0.08255978  6.29915959  6.43443219
   0.19403229  4.87628442  6.40277188
   2.54236257  2.26409199  7.45238172
   3.66713151  7.26077388  7.18593691
   5.01202370  6.58369950  7.41993123
   6.00016139  7.44094053  8.21674841
   3.60762951  4.52099620  6.65114672
   1.23344770  8.13823403  6.60329913
  -0.81895390  6.74022243  6.85956702
  -0.67555641  3.22313971  6.87452346
   3.33316199  2.78364637  8.02147428
   2.22403389  1.35528463  7.97492180
   2.97522290  1.98490011  6.45646667
   3.23784380  7.50764661  8.17974872
   4.85686193  5.64395316  7.97450142
   4.67493541  8.94124095  6.90988667
   5.62938279  7.57798326  9.24474048
   6.97849820  6.93806449  8.26285136
   6.78958249  8.76627923  6.93393984
   5.48744492  6.29448658  6.44926725
  -0.95073351  4.15538053  6.69768119
   1.38958389  3.07715546  7.30499907
   3.83719728  8.54669735  6.51377285
   6.15635439  8.77971400  7.69296467
 


--------------------------------------------------------------------------------------------------------


 k-point  1 :   0.0000 0.0000 0.0000  plane waves:   82945
 k-point  2 :   0.3333 0.0000 0.0000  plane waves:   82944
 k-point  3 :   0.0000 0.3333 0.0000  plane waves:   82913
 k-point  4 :   0.3333 0.3333 0.0000  plane waves:   82924
 k-point  5 :  -0.3333 0.3333 0.0000  plane waves:   82907

 maximum and minimum number of plane-waves per node :     82945    82907

 maximum number of plane-waves:     82945
 maximum index in each direction: 
   IXMAX=   33   IYMAX=   18   IZMAX=   37
   IXMIN=  -33   IYMIN=  -19   IZMIN=  -37


 serial   3D FFT for wavefunctions
 parallel 3D FFT for charge:
    minimum data exchange during FFTs selected (reduces bandwidth)


 total amount of memory used by VASP MPI-rank0   177438. kBytes
=======================================================================

   base      :      30000. kBytes
   nonlr-proj:      37007. kBytes
   fftplans  :       6642. kBytes
   grid      :      34272. kBytes
   one-center:       1741. kBytes
   wavefun   :      67776. kBytes
 
     INWAV:  cpu time    0.0000: real time    0.0003
 Broyden mixing: mesh for mixing (old mesh)
   NGX = 65   NGY = 37   NGZ = 75
  (NGX  =200   NGY  =112   NGZ  =224)
  gives a total of 180375 points

 initial charge density was supplied:
 charge density of overlapping atoms calculated
 number of electron     750.0000000 magnetization 
 keeping initial charge density in first step


--------------------------------------------------------------------------------------------------------


 Maximum index for non-local projection operator         2304
 Maximum index for augmentation-charges          841 (set IRDMAX)


--------------------------------------------------------------------------------------------------------


 First call to EWALD:  gamma=   0.113
 Maximum number of real-space cells 3x 4x 2
 Maximum number of reciprocal cells 3x 2x 4

    FEWALD:  cpu time    0.0039: real time    0.0039


--------------------------------------- Iteration      1(   1)  ---------------------------------------


    POTLOK:  cpu time    0.1058: real time    0.1245
    SETDIJ:  cpu time    0.0110: real time    0.0210
     EDDAV:  cpu time   18.6408: real time   18.6929
       DOS:  cpu time    0.0026: real time    0.0047
    --------------------------------------------
      LOOP:  cpu time   18.7603: real time   18.8432

 eigenvalue-minimisations  :  4800
 total energy-change (2. order) : 0.4449212E+04  (-0.2936759E+05)
 number of electron     750.0000000 magnetization 
 augmentation part      750.0000000 magnetization 

 DIPCOR: dipole corrections for dipol
 direction  3 min pos   143,
 dipolmoment           0.000000      0.000000     -0.001077 electrons x Angstroem
 Tr[quadrupol]    -30367.360975

 energy correction for charged system         0.000000 eV
 dipol+quadrupol energy correction           -0.000000 eV
 added-field ion interaction         -0.008453 eV  (added to PSCEN)


 Free energy of the ion-electron system (eV)
  ---------------------------------------------------
  alpha Z        PSCENC =      1009.78460694
  Ewald energy   TEWEN  =    169188.90639528
  -Hartree energ DENC   =   -211667.17023570
  -exchange      EXHF   =         0.00000000
  -V(xc)+E(xc)   XCENC  =     -2438.03360359
  PAW double counting   =     41365.07842784   -37284.21721398
  entropy T*S    EENTRO =        -0.02798483
  eigenvalues    EBANDS =      2689.31981683
  atomic energy  EATOM  =     41585.57197883
  Solvation  Ediel_sol  =         0.00000000
  ---------------------------------------------------
  free energy    TOTEN  =      4449.21218761 eV

  energy without entropy =     4449.24017244  energy(sigma->0) =     4449.22618003


--------------------------------------------------------------------------------------------------------




--------------------------------------- Iteration      1(   2)  ---------------------------------------


     EDDAV:  cpu time   20.0167: real time   20.0227
       DOS:  cpu time    0.0010: real time    0.0010
    --------------------------------------------
      LOOP:  cpu time   20.0177: real time   20.0237

 eigenvalue-minimisations  :  5280
 total energy-change (2. order) :-0.4923379E+04  (-0.4579929E+04)
 number of electron     750.0000000 magnetization 
 augmentation part      750.0000000 magnetization 

 DIPCOR: dipole corrections for dipol
 direction  3 min pos   143,
 dipolmoment           0.000000      0.000000     -0.001077 electrons x Angstroem
 Tr[quadrupol]    -30367.360975

 energy correction for charged system         0.000000 eV
 dipol+quadrupol energy correction           -0.000000 eV
 added-field ion interaction         -0.008453 eV  (added to PSCEN)


 Free energy of the ion-electron system (eV)
  ---------------------------------------------------
  alpha Z        PSCENC =      1009.78460694
  Ewald energy   TEWEN  =    169188.90639528
  -Hartree energ DENC   =   -211667.17023570
  -exchange      EXHF   =         0.00000000
  -V(xc)+E(xc)   XCENC  =     -2438.03360359
  PAW double counting   =     41365.07842784   -37284.21721398
  entropy T*S    EENTRO =        -0.03929861
  eigenvalues    EBANDS =     -2234.04790033
  atomic energy  EATOM  =     41585.57197883
  Solvation  Ediel_sol  =         0.00000000
  ---------------------------------------------------
  free energy    TOTEN  =      -474.16684332 eV

  energy without entropy =     -474.12754472  energy(sigma->0) =     -474.14719402


--------------------------------------------------------------------------------------------------------




--------------------------------------- Iteration      1(   3)  ---------------------------------------


     EDDAV:  cpu time   33.6598: real time   33.6773
       DOS:  cpu time    0.0008: real time    0.0008
    --------------------------------------------
      LOOP:  cpu time   33.6606: real time   33.6781

 eigenvalue-minimisations  :  8352
 total energy-change (2. order) :-0.4605316E+03  (-0.4385089E+03)
 number of electron     750.0000000 magnetization 
 augmentation part      750.0000000 magnetization 

 DIPCOR: dipole corrections for dipol
 direction  3 min pos   143,
 dipolmoment           0.000000      0.000000     -0.001077 electrons x Angstroem
 Tr[quadrupol]    -30367.360975

 energy correction for charged system         0.000000 eV
 dipol+quadrupol energy correction           -0.000000 eV
 added-field ion interaction         -0.008453 eV  (added to PSCEN)


 Free energy of the ion-electron system (eV)
  ---------------------------------------------------
  alpha Z        PSCENC =      1009.78460694
  Ewald energy   TEWEN  =    169188.90639528
  -Hartree energ DENC   =   -211667.17023570
  -exchange      EXHF   =         0.00000000
  -V(xc)+E(xc)   XCENC  =     -2438.03360359
  PAW double counting   =     41365.07842784   -37284.21721398
  entropy T*S    EENTRO =        -0.03254364
  eigenvalues    EBANDS =     -2694.58620867
  atomic energy  EATOM  =     41585.57197883
  Solvation  Ediel_sol  =         0.00000000
  ---------------------------------------------------
  free energy    TOTEN  =      -934.69839670 eV

  energy without entropy =     -934.66585306  energy(sigma->0) =     -934.68212488


--------------------------------------------------------------------------------------------------------




--------------------------------------- Iteration      1(   4)  ---------------------------------------


     EDDAV:  cpu time   23.4341: real time   23.4437
       DOS:  cpu time    0.0013: real time    0.0013
    --------------------------------------------
      LOOP:  cpu time   23.4354: real time   23.4451

 eigenvalue-minimisations  :  6384
 total energy-change (2. order) :-0.2337972E+02  (-0.2289601E+02)
 number of electron     750.0000000 magnetization 
 augmentation part      750.0000000 magnetization 

 DIPCOR: dipole corrections for dipol
 direction  3 min pos   143,
 dipolmoment           0.000000      0.000000     -0.001077 electrons x Angstroem
 Tr[quadrupol]    -30367.360975

 energy correction for charged system         0.000000 eV
 dipol+quadrupol energy correction           -0.000000 eV
 added-field ion interaction         -0.008453 eV  (added to PSCEN)


 Free energy of the ion-electron system (eV)
  ---------------------------------------------------
  alpha Z        PSCENC =      1009.78460694
  Ewald energy   TEWEN  =    169188.90639528
  -Hartree energ DENC   =   -211667.17023570
  -exchange      EXHF   =         0.00000000
  -V(xc)+E(xc)   XCENC  =     -2438.03360359
  PAW double counting   =     41365.07842784   -37284.21721398
  entropy T*S    EENTRO =        -0.03025679
  eigenvalues    EBANDS =     -2717.96822007
  atomic energy  EATOM  =     41585.57197883
  Solvation  Ediel_sol  =         0.00000000
  ---------------------------------------------------
  free energy    TOTEN  =      -958.07812126 eV

  energy without entropy =     -958.04786447  energy(sigma->0) =     -958.06299286


--------------------------------------------------------------------------------------------------------




--------------------------------------- Iteration      1(   5)  ---------------------------------------


     EDDAV:  cpu time   25.4248: real time   25.4330
       DOS:  cpu time    0.0016: real time    0.0016
    --------------------------------------------
      LOOP:  cpu time   25.4264: real time   25.4347

 eigenvalue-minimisations  :  7008
 total energy-change (2. order) :-0.7655580E+00  (-0.7587835E+00)
 number of electron     750.0000000 magnetization 
 augmentation part      750.0000000 magnetization 

 DIPCOR: dipole corrections for dipol
 direction  3 min pos   143,
 dipolmoment           0.000000      0.000000     -0.001077 electrons x Angstroem
 Tr[quadrupol]    -30367.360975

 energy correction for charged system         0.000000 eV
 dipol+quadrupol energy correction           -0.000000 eV
 added-field ion interaction         -0.008453 eV  (added to PSCEN)


 Free energy of the ion-electron system (eV)
  ---------------------------------------------------
  alpha Z        PSCENC =      1009.78460694
  Ewald energy   TEWEN  =    169188.90639528
  -Hartree energ DENC   =   -211667.17023570
  -exchange      EXHF   =         0.00000000
  -V(xc)+E(xc)   XCENC  =     -2438.03360359
  PAW double counting   =     41365.07842784   -37284.21721398
  entropy T*S    EENTRO =        -0.02963832
  eigenvalues    EBANDS =     -2718.73439650
  atomic energy  EATOM  =     41585.57197883
  Solvation  Ediel_sol  =         0.00000000
  ---------------------------------------------------
  free energy    TOTEN  =      -958.84367921 eV

  energy without entropy =     -958.81404089  energy(sigma->0) =     -958.82886005


--------------------------------------------------------------------------------------------------------




--------------------------------------- Iteration      1(   6)  ---------------------------------------


     EDDAV:  cpu time   26.7243: real time   26.7310
       DOS:  cpu time    0.0009: real time    0.0009
    --------------------------------------------
      LOOP:  cpu time   26.7252: real time   26.7319

 eigenvalue-minimisations  :  7392
 total energy-change (2. order) :-0.3478022E-01  (-0.3465301E-01)
 number of electron     750.0000000 magnetization 
 augmentation part      750.0000000 magnetization 

 DIPCOR: dipole corrections for dipol
 direction  3 min pos   143,
 dipolmoment           0.000000      0.000000     -0.001077 electrons x Angstroem
 Tr[quadrupol]    -30367.360975

 energy correction for charged system         0.000000 eV
 dipol+quadrupol energy correction           -0.000000 eV
 added-field ion interaction         -0.008453 eV  (added to PSCEN)


 Free energy of the ion-electron system (eV)
  ---------------------------------------------------
  alpha Z        PSCENC =      1009.78460694
  Ewald energy   TEWEN  =    169188.90639528
  -Hartree energ DENC   =   -211667.17023570
  -exchange      EXHF   =         0.00000000
  -V(xc)+E(xc)   XCENC  =     -2438.03360359
  PAW double counting   =     41365.07842784   -37284.21721398
  entropy T*S    EENTRO =        -0.02955680
  eigenvalues    EBANDS =     -2718.76925825
  atomic energy  EATOM  =     41585.57197883
  Solvation  Ediel_sol  =         0.00000000
  ---------------------------------------------------
  free energy    TOTEN  =      -958.87845944 eV

  energy without entropy =     -958.84890264  energy(sigma->0) =     -958.86368104


--------------------------------------------------------------------------------------------------------




--------------------------------------- Iteration      1(   7)  ---------------------------------------


     EDDAV:  cpu time   27.1708: real time   27.1801
       DOS:  cpu time    0.0018: real time    0.0018
    CHARGE:  cpu time    0.8603: real time    0.8645
    MIXING:  cpu time    0.0030: real time    0.0038
    --------------------------------------------
      LOOP:  cpu time   28.0359: real time   28.0503

 eigenvalue-minimisations  :  7536
 total energy-change (2. order) :-0.1017541E-02  (-0.1015507E-02)
 number of electron     750.0000146 magnetization 
 augmentation part      216.0041317 magnetization 

 DIPCOR: dipole corrections for dipol
 direction  3 min pos   143,
 dipolmoment           0.000000      0.000000     -0.001077 electrons x Angstroem
 Tr[quadrupol]    -30367.360975

 energy correction for charged system         0.000000 eV
 dipol+quadrupol energy correction           -0.000000 eV
 added-field ion interaction         -0.008453 eV  (added to PSCEN)


 Broyden mixing:
  rms(total) = 0.96587E+01    rms(broyden)= 0.96583E+01
  rms(prec ) = 0.98930E+01
  weight for this iteration     100.00

 Free energy of the ion-electron system (eV)
  ---------------------------------------------------
  alpha Z        PSCENC =      1009.78460694
  Ewald energy   TEWEN  =    169188.90639528
  -Hartree energ DENC   =   -211667.17023570
  -exchange      EXHF   =         0.00000000
  -V(xc)+E(xc)   XCENC  =     -2438.03360359
  PAW double counting   =     41365.07842784   -37284.21721398
  entropy T*S    EENTRO =        -0.02955472
  eigenvalues    EBANDS =     -2718.77027786
  atomic energy  EATOM  =     41585.57197883
  Solvation  Ediel_sol  =         0.00000000
  ---------------------------------------------------
  free energy    TOTEN  =      -958.87947698 eV

  energy without entropy =     -958.84992225  energy(sigma->0) =     -958.86469961


--------------------------------------------------------------------------------------------------------




--------------------------------------- Iteration      1(   8)  ---------------------------------------


    POTLOK:  cpu time    0.0894: real time    0.0900
    SETDIJ:  cpu time    0.0105: real time    0.0105
    EDDIAG:  cpu time    3.4833: real time    3.4862
  RMM-DIIS:  cpu time    9.7506: real time    9.7576
    ORTHCH:  cpu time    0.8426: real time    0.8427
       DOS:  cpu time    0.0008: real time    0.0008
    CHARGE:  cpu time    0.9401: real time    0.9403
    MIXING:  cpu time    0.0035: real time    0.0090
    --------------------------------------------
      LOOP:  cpu time   15.1207: real time   15.1370

 eigenvalue-minimisations  :  4801
 total energy-change (2. order) : 0.5678282E+02  (-0.1740230E+02)
 number of electron     750.0000158 magnetization 
 augmentation part      229.4270449 magnetization 

 DIPCOR: dipole corrections for dipol
 direction  3 min pos   149,
 dipolmoment           0.000000      0.000000      0.311703 electrons x Angstroem
 Tr[quadrupol]    -30377.760765

 energy correction for charged system         0.000000 eV
 dipol+quadrupol energy correction           -0.002320 eV
 added-field ion interaction          8.855342 eV  (added to PSCEN)


 Broyden mixing:
  rms(total) = 0.35123E+01    rms(broyden)= 0.35122E+01
  rms(prec ) = 0.38625E+01
  weight for this iteration     100.00

 eigenvalues of (default mixing * dielectric matrix)
  average eigenvalue GAMMA=   1.3693
  1.3693

 Free energy of the ion-electron system (eV)
  ---------------------------------------------------
  alpha Z        PSCENC =      1018.64608150
  Ewald energy   TEWEN  =    169188.90639528
  -Hartree energ DENC   =   -211584.23169034
  -exchange      EXHF   =         0.00000000
  -V(xc)+E(xc)   XCENC  =     -2435.22299544
  PAW double counting   =     48073.99756985   -44090.26546177
  entropy T*S    EENTRO =        -0.03186041
  eigenvalues    EBANDS =     -2659.46667885
  atomic energy  EATOM  =     41585.57197883
  Solvation  Ediel_sol  =         0.00000000
  ---------------------------------------------------
  free energy    TOTEN  =      -902.09666135 eV

  energy without entropy =     -902.06480094  energy(sigma->0) =     -902.08073115


--------------------------------------------------------------------------------------------------------




--------------------------------------- Iteration      1(   9)  ---------------------------------------


    POTLOK:  cpu time    0.0912: real time    0.0915
    SETDIJ:  cpu time    0.0105: real time    0.0105
    EDDIAG:  cpu time    3.4763: real time    3.4808
  RMM-DIIS:  cpu time   10.0249: real time   10.0271
    ORTHCH:  cpu time    0.8485: real time    0.8486
       DOS:  cpu time    0.0007: real time    0.0007
    CHARGE:  cpu time    0.8734: real time    0.8736
    MIXING:  cpu time    0.0031: real time    0.0032
    --------------------------------------------
      LOOP:  cpu time   15.3287: real time   15.3360

 eigenvalue-minimisations  :  5016
 total energy-change (2. order) :-0.1858963E+03  (-0.2641992E+02)
 number of electron     750.0000155 magnetization 
 augmentation part      244.1265935 magnetization 

 DIPCOR: dipole corrections for dipol
 direction  3 min pos   147,
 dipolmoment           0.000000      0.000000     -3.993211 electrons x Angstroem
 Tr[quadrupol]    -30372.093373

 energy correction for charged system         0.000000 eV
 dipol+quadrupol energy correction           -0.380722 eV
 added-field ion interaction        -86.073354 eV  (added to PSCEN)


 Broyden mixing:
  rms(total) = 0.10941E+02    rms(broyden)= 0.10940E+02
  rms(prec ) = 0.17222E+02
  weight for this iteration     100.00

 eigenvalues of (default mixing * dielectric matrix)
  average eigenvalue GAMMA=   0.8203
  1.4943  0.1464

 Free energy of the ion-electron system (eV)
  ---------------------------------------------------
  alpha Z        PSCENC =       923.33898298
  Ewald energy   TEWEN  =    169188.90639528
  -Hartree energ DENC   =   -211460.72325379
  -exchange      EXHF   =         0.00000000
  -V(xc)+E(xc)   XCENC  =     -2430.66696718
  PAW double counting   =     53295.87469781   -49377.10314256
  entropy T*S    EENTRO =        -0.04026251
  eigenvalues    EBANDS =     -2813.15141908
  atomic energy  EATOM  =     41585.57197883
  Solvation  Ediel_sol  =         0.00000000
  ---------------------------------------------------
  free energy    TOTEN  =     -1087.99299022 eV

  energy without entropy =    -1087.95272771  energy(sigma->0) =    -1087.97285897


--------------------------------------------------------------------------------------------------------




--------------------------------------- Iteration      1(  10)  ---------------------------------------


    POTLOK:  cpu time    0.0901: real time    0.0904
    SETDIJ:  cpu time    0.0105: real time    0.0105
    EDDIAG:  cpu time    4.2544: real time    4.2568
  RMM-DIIS:  cpu time    9.6177: real time    9.6237
    ORTHCH:  cpu time    0.8571: real time    0.8572
       DOS:  cpu time    0.0008: real time    0.0008
    CHARGE:  cpu time    0.8892: real time    0.8895
    MIXING:  cpu time    0.0031: real time    0.0031
    --------------------------------------------
      LOOP:  cpu time   15.7228: real time   15.7319

 eigenvalue-minimisations  :  4813
 total energy-change (2. order) : 0.1525247E+03  (-0.9567510E+01)
 number of electron     750.0000161 magnetization 
 augmentation part      238.3877932 magnetization 

 DIPCOR: dipole corrections for dipol
 direction  3 min pos   151,
 dipolmoment           0.000000      0.000000      0.761214 electrons x Angstroem
 Tr[quadrupol]    -30388.727037

 energy correction for charged system         0.000000 eV
 dipol+quadrupol energy correction           -0.013835 eV
 added-field ion interaction         26.843601 eV  (added to PSCEN)


 Broyden mixing:
  rms(total) = 0.54066E+01    rms(broyden)= 0.54065E+01
  rms(prec ) = 0.83664E+01
  weight for this iteration     100.00

 eigenvalues of (default mixing * dielectric matrix)
  average eigenvalue GAMMA=   0.6179
  1.5370  0.2064  0.1104

 Free energy of the ion-electron system (eV)
  ---------------------------------------------------
  alpha Z        PSCENC =      1036.62282567
  Ewald energy   TEWEN  =    169188.90639528
  -Hartree energ DENC   =   -211679.28007090
  -exchange      EXHF   =         0.00000000
  -V(xc)+E(xc)   XCENC  =     -2430.59313193
  PAW double counting   =     54412.89301382   -50505.63815105
  entropy T*S    EENTRO =        -0.05818869
  eigenvalues    EBANDS =     -2543.89295180
  atomic energy  EATOM  =     41585.57197883
  Solvation  Ediel_sol  =         0.00000000
  ---------------------------------------------------
  free energy    TOTEN  =      -935.46828077 eV

  energy without entropy =     -935.41009208  energy(sigma->0) =     -935.43918642


--------------------------------------------------------------------------------------------------------




--------------------------------------- Iteration      1(  11)  ---------------------------------------


    POTLOK:  cpu time    0.0894: real time    0.0900
    SETDIJ:  cpu time    0.0105: real time    0.0105
    EDDIAG:  cpu time    3.4934: real time    3.4945
  RMM-DIIS:  cpu time    9.5905: real time    9.5984
    ORTHCH:  cpu time    0.8478: real time    0.8479
       DOS:  cpu time    0.0008: real time    0.0008
    CHARGE:  cpu time    0.8762: real time    0.8766
    MIXING:  cpu time    0.0033: real time    0.0033
    --------------------------------------------
      LOOP:  cpu time   14.9119: real time   14.9220

 eigenvalue-minimisations  :  4823
 total energy-change (2. order) : 0.4327141E+02  (-0.3486585E+01)
 number of electron     750.0000159 magnetization 
 augmentation part      234.6914547 magnetization 

 DIPCOR: dipole corrections for dipol
 direction  3 min pos   152,
 dipolmoment           0.000000      0.000000     -1.437701 electrons x Angstroem
 Tr[quadrupol]    -30387.121128

 energy correction for charged system         0.000000 eV
 dipol+quadrupol energy correction           -0.049352 eV
 added-field ion interaction        -55.626813 eV  (added to PSCEN)


 Broyden mixing:
  rms(total) = 0.14211E+01    rms(broyden)= 0.14210E+01
  rms(prec ) = 0.22985E+01
  weight for this iteration     100.00

 eigenvalues of (default mixing * dielectric matrix)
  average eigenvalue GAMMA=   0.5960
  1.5309  0.5454  0.2165  0.0911

 Free energy of the ion-electron system (eV)
  ---------------------------------------------------
  alpha Z        PSCENC =       954.11689467
  Ewald energy   TEWEN  =    169188.90639528
  -Hartree energ DENC   =   -211776.75036251
  -exchange      EXHF   =         0.00000000
  -V(xc)+E(xc)   XCENC  =     -2430.72625488
  PAW double counting   =     55084.02456456   -51183.69332935
  entropy T*S    EENTRO =        -0.02501515
  eigenvalues    EBANDS =     -2313.62174131
  atomic energy  EATOM  =     41585.57197883
  Solvation  Ediel_sol  =         0.00000000
  ---------------------------------------------------
  free energy    TOTEN  =      -892.19686986 eV

  energy without entropy =     -892.17185471  energy(sigma->0) =     -892.18436229


--------------------------------------------------------------------------------------------------------




--------------------------------------- Iteration      1(  12)  ---------------------------------------


    POTLOK:  cpu time    0.0894: real time    0.0900
    SETDIJ:  cpu time    0.0103: real time    0.0103
    EDDIAG:  cpu time    3.4977: real time    3.4994
  RMM-DIIS:  cpu time   10.7351: real time   10.7963
    ORTHCH:  cpu time    0.8458: real time    0.8463
       DOS:  cpu time    0.0007: real time    0.0007
    CHARGE:  cpu time    0.8686: real time    0.8690
    MIXING:  cpu time    0.0036: real time    0.0036
    --------------------------------------------
      LOOP:  cpu time   16.0511: real time   16.1155

 eigenvalue-minimisations  :  5366
 total energy-change (2. order) :-0.9340829E+00  (-0.1466127E+01)
 number of electron     750.0000162 magnetization 
 augmentation part      234.9467974 magnetization 

 DIPCOR: dipole corrections for dipol
 direction  3 min pos   153,
 dipolmoment           0.000000      0.000000     -1.222967 electrons x Angstroem
 Tr[quadrupol]    -30389.588632

 energy correction for charged system         0.000000 eV
 dipol+quadrupol energy correction           -0.035710 eV
 added-field ion interaction        -51.509916 eV  (added to PSCEN)


 Broyden mixing:
  rms(total) = 0.15152E+01    rms(broyden)= 0.15152E+01
  rms(prec ) = 0.23560E+01
  weight for this iteration     100.00

 eigenvalues of (default mixing * dielectric matrix)
  average eigenvalue GAMMA=   0.5649
  1.5346  0.8099  0.0914  0.1977  0.1911

 Free energy of the ion-electron system (eV)
  ---------------------------------------------------
  alpha Z        PSCENC =       958.24743284
  Ewald energy   TEWEN  =    169188.90639528
  -Hartree energ DENC   =   -211814.85285411
  -exchange      EXHF   =         0.00000000
  -V(xc)+E(xc)   XCENC  =     -2430.37853982
  PAW double counting   =     55585.78024090   -51691.58874711
  entropy T*S    EENTRO =        -0.04030315
  eigenvalues    EBANDS =     -2274.77655639
  atomic energy  EATOM  =     41585.57197883
  Solvation  Ediel_sol  =         0.00000000
  ---------------------------------------------------
  free energy    TOTEN  =      -893.13095274 eV

  energy without entropy =     -893.09064959  energy(sigma->0) =     -893.11080117


--------------------------------------------------------------------------------------------------------




--------------------------------------- Iteration      1(  13)  ---------------------------------------


    POTLOK:  cpu time    0.0893: real time    0.0899
    SETDIJ:  cpu time    0.0106: real time    0.0106
    EDDIAG:  cpu time    3.4857: real time    3.4876
  RMM-DIIS:  cpu time   10.0830: real time   10.0881
    ORTHCH:  cpu time    0.8486: real time    0.8488
       DOS:  cpu time    0.0008: real time    0.0008
    CHARGE:  cpu time    0.8659: real time    0.8661
    MIXING:  cpu time    0.0034: real time    0.0034
    --------------------------------------------
      LOOP:  cpu time   15.3873: real time   15.3953

 eigenvalue-minimisations  :  5026
 total energy-change (2. order) : 0.3868022E+01  (-0.3310054E+00)
 number of electron     750.0000162 magnetization 
 augmentation part      234.7629530 magnetization 

 DIPCOR: dipole corrections for dipol
 direction  3 min pos   153,
 dipolmoment           0.000000      0.000000     -1.113755 electrons x Angstroem
 Tr[quadrupol]    -30390.980919

 energy correction for charged system         0.000000 eV
 dipol+quadrupol energy correction           -0.029617 eV
 added-field ion interaction        -46.910040 eV  (added to PSCEN)


 Broyden mixing:
  rms(total) = 0.58627E+00    rms(broyden)= 0.58625E+00
  rms(prec ) = 0.74314E+00
  weight for this iteration     100.00

 eigenvalues of (default mixing * dielectric matrix)
  average eigenvalue GAMMA=   0.5931
  1.5667  0.9099  0.5969  0.2354  0.0915  0.1581

 Free energy of the ion-electron system (eV)
  ---------------------------------------------------
  alpha Z        PSCENC =       962.85340255
  Ewald energy   TEWEN  =    169188.90639528
  -Hartree energ DENC   =   -211842.78842374
  -exchange      EXHF   =         0.00000000
  -V(xc)+E(xc)   XCENC  =     -2429.73589020
  PAW double counting   =     56147.14638299   -52259.70207496
  entropy T*S    EENTRO =        -0.03409599
  eigenvalues    EBANDS =     -2241.48060553
  atomic energy  EATOM  =     41585.57197883
  Solvation  Ediel_sol  =         0.00000000
  ---------------------------------------------------
  free energy    TOTEN  =      -889.26293075 eV

  energy without entropy =     -889.22883477  energy(sigma->0) =     -889.24588276


--------------------------------------------------------------------------------------------------------




--------------------------------------- Iteration      1(  14)  ---------------------------------------


    POTLOK:  cpu time    0.0938: real time    0.0941
    SETDIJ:  cpu time    0.0104: real time    0.0104
    EDDIAG:  cpu time    3.4888: real time    3.4901
  RMM-DIIS:  cpu time    9.6743: real time    9.6771
    ORTHCH:  cpu time    0.8400: real time    0.8401
       DOS:  cpu time    0.0008: real time    0.0008
    CHARGE:  cpu time    0.8640: real time    0.8641
    MIXING:  cpu time    0.0037: real time    0.0037
    --------------------------------------------
      LOOP:  cpu time   14.9757: real time   14.9803

 eigenvalue-minimisations  :  4854
 total energy-change (2. order) : 0.3534719E-01  (-0.2201205E+00)
 number of electron     750.0000162 magnetization 
 augmentation part      234.7723486 magnetization 

 DIPCOR: dipole corrections for dipol
 direction  3 min pos   153,
 dipolmoment           0.000000      0.000000     -1.135174 electrons x Angstroem
 Tr[quadrupol]    -30392.347269

 energy correction for charged system         0.000000 eV
 dipol+quadrupol energy correction           -0.030767 eV
 added-field ion interaction        -47.812206 eV  (added to PSCEN)


 Broyden mixing:
  rms(total) = 0.60051E+00    rms(broyden)= 0.60050E+00
  rms(prec ) = 0.74164E+00
  weight for this iteration     100.00

 eigenvalues of (default mixing * dielectric matrix)
  average eigenvalue GAMMA=   0.6966
  1.9470  1.3771  0.8306  0.0915  0.2359  0.2359  0.1583

 Free energy of the ion-electron system (eV)
  ---------------------------------------------------
  alpha Z        PSCENC =       961.95008620
  Ewald energy   TEWEN  =    169188.90639528
  -Hartree energ DENC   =   -211877.84295978
  -exchange      EXHF   =         0.00000000
  -V(xc)+E(xc)   XCENC  =     -2429.24276663
  PAW double counting   =     56606.40206721   -52724.29769392
  entropy T*S    EENTRO =        -0.03951396
  eigenvalues    EBANDS =     -2200.63517679
  atomic energy  EATOM  =     41585.57197883
  Solvation  Ediel_sol  =         0.00000000
  ---------------------------------------------------
  free energy    TOTEN  =      -889.22758356 eV

  energy without entropy =     -889.18806960  energy(sigma->0) =     -889.20782658


--------------------------------------------------------------------------------------------------------




--------------------------------------- Iteration      1(  15)  ---------------------------------------


    POTLOK:  cpu time    0.0901: real time    0.0907
    SETDIJ:  cpu time    0.0105: real time    0.0105
    EDDIAG:  cpu time    3.4967: real time    3.4976
  RMM-DIIS:  cpu time    9.7359: real time    9.7386
    ORTHCH:  cpu time    0.8468: real time    0.8469
       DOS:  cpu time    0.0008: real time    0.0008
    CHARGE:  cpu time    0.8658: real time    0.8659
    MIXING:  cpu time    0.0039: real time    0.0039
    --------------------------------------------
      LOOP:  cpu time   15.0504: real time   15.0548

 eigenvalue-minimisations  :  4876
 total energy-change (2. order) : 0.4659363E+00  (-0.9965490E-01)
 number of electron     750.0000162 magnetization 
 augmentation part      234.7055684 magnetization 

 DIPCOR: dipole corrections for dipol
 direction  3 min pos   153,
 dipolmoment           0.000000      0.000000     -1.076329 electrons x Angstroem
 Tr[quadrupol]    -30394.912567

 energy correction for charged system         0.000000 eV
 dipol+quadrupol energy correction           -0.027660 eV
 added-field ion interaction        -45.333706 eV  (added to PSCEN)


 Broyden mixing:
  rms(total) = 0.35083E+00    rms(broyden)= 0.35083E+00
  rms(prec ) = 0.45779E+00
  weight for this iteration     100.00

 eigenvalues of (default mixing * dielectric matrix)
  average eigenvalue GAMMA=   0.6685
  2.0141  1.4132  0.8846  0.0915  0.3085  0.1554  0.2636  0.2170

 Free energy of the ion-electron system (eV)
  ---------------------------------------------------
  alpha Z        PSCENC =       964.43169307
  Ewald energy   TEWEN  =    169188.90639528
  -Hartree energ DENC   =   -211938.82113033
  -exchange      EXHF   =         0.00000000
  -V(xc)+E(xc)   XCENC  =     -2428.15161948
  PAW double counting   =     57425.45030774   -53552.80499294
  entropy T*S    EENTRO =        -0.03365032
  eigenvalues    EBANDS =     -2133.31062915
  atomic energy  EATOM  =     41585.57197883
  Solvation  Ediel_sol  =         0.00000000
  ---------------------------------------------------
  free energy    TOTEN  =      -888.76164731 eV

  energy without entropy =     -888.72799698  energy(sigma->0) =     -888.74482215


--------------------------------------------------------------------------------------------------------




--------------------------------------- Iteration      1(  16)  ---------------------------------------


    POTLOK:  cpu time    0.0904: real time    0.0907
    SETDIJ:  cpu time    0.0103: real time    0.0103
    EDDIAG:  cpu time    3.4892: real time    3.4901
  RMM-DIIS:  cpu time    9.8566: real time    9.9106
    ORTHCH:  cpu time    0.8460: real time    0.8462
       DOS:  cpu time    0.0007: real time    0.0007
    CHARGE:  cpu time    0.8633: real time    0.8635
    MIXING:  cpu time    0.0041: real time    0.0041
    --------------------------------------------
      LOOP:  cpu time   15.1606: real time   15.2163

 eigenvalue-minimisations  :  4907
 total energy-change (2. order) : 0.1336231E+00  (-0.3345919E-01)
 number of electron     750.0000161 magnetization 
 augmentation part      234.7240223 magnetization 

 DIPCOR: dipole corrections for dipol
 direction  3 min pos   153,
 dipolmoment           0.000000      0.000000     -1.092601 electrons x Angstroem
 Tr[quadrupol]    -30395.639644

 energy correction for charged system         0.000000 eV
 dipol+quadrupol energy correction           -0.028503 eV
 added-field ion interaction        -46.019069 eV  (added to PSCEN)


 Broyden mixing:
  rms(total) = 0.21317E+00    rms(broyden)= 0.21317E+00
  rms(prec ) = 0.29247E+00
  weight for this iteration     100.00

 eigenvalues of (default mixing * dielectric matrix)
  average eigenvalue GAMMA=   0.6864
  1.9999  1.5249  1.1107  0.5901  0.0915  0.1571  0.2676  0.2343  0.2011

 Free energy of the ion-electron system (eV)
  ---------------------------------------------------
  alpha Z        PSCENC =       963.74548773
  Ewald energy   TEWEN  =    169188.90639528
  -Hartree energ DENC   =   -211957.30200118
  -exchange      EXHF   =         0.00000000
  -V(xc)+E(xc)   XCENC  =     -2427.91460221
  PAW double counting   =     57551.85522988   -53680.75436793
  entropy T*S    EENTRO =        -0.03285833
  eigenvalues    EBANDS =     -2112.70328622
  atomic energy  EATOM  =     41585.57197883
  Solvation  Ediel_sol  =         0.00000000
  ---------------------------------------------------
  free energy    TOTEN  =      -888.62802417 eV

  energy without entropy =     -888.59516584  energy(sigma->0) =     -888.61159500


--------------------------------------------------------------------------------------------------------




--------------------------------------- Iteration      1(  17)  ---------------------------------------


    POTLOK:  cpu time    0.0915: real time    0.0921
    SETDIJ:  cpu time    0.0104: real time    0.0104
    EDDIAG:  cpu time    3.4790: real time    3.4798
  RMM-DIIS:  cpu time   10.1101: real time   10.1153
    ORTHCH:  cpu time    0.8413: real time    0.8414
       DOS:  cpu time    0.0007: real time    0.0007
    CHARGE:  cpu time    0.8633: real time    0.8635
    MIXING:  cpu time    0.0042: real time    0.0042
    --------------------------------------------
      LOOP:  cpu time   15.4006: real time   15.4075

 eigenvalue-minimisations  :  5028
 total energy-change (2. order) : 0.4456870E-01  (-0.1028253E-01)
[...]
      LOOP:  cpu time   12.4221: real time   12.4285

 eigenvalue-minimisations  :  3479
 total energy-change (2. order) : 0.2396817E-04  (-0.4027190E-05)
 number of electron     750.0000141 magnetization 
 augmentation part      234.7910243 magnetization 

 DIPCOR: dipole corrections for dipol
 direction  3 min pos   150,
 dipolmoment           0.000000      0.000000     -1.152924 electrons x Angstroem
 Tr[quadrupol]    -30401.629124

 energy correction for charged system         0.000000 eV
 dipol+quadrupol energy correction           -0.031737 eV
 added-field ion interaction        -36.688950 eV  (added to PSCEN)


 eigenvalues of (default mixing * dielectric matrix)
  average eigenvalue GAMMA=   0.3628
  0.5746  0.1509

  free energy =  -0.888552513455E+03  energy without entropy=  -0.888520008677E+03


--------------------------------------------------------------------------------------------------------




--------------------------------------- Iteration     31(   4)  ---------------------------------------


    POTLOK:  cpu time    0.0928: real time    0.0932
    SETDIJ:  cpu time    0.0104: real time    0.0104
    EDDIAG:  cpu time    3.5024: real time    3.5037
  RMM-DIIS:  cpu time    5.9928: real time    5.9959
    ORTHCH:  cpu time    0.8458: real time    0.8494
       DOS:  cpu time    0.0008: real time    0.0008
    CHARGE:  cpu time    0.8651: real time    0.8653
    MIXING:  cpu time    0.0031: real time    0.0031
    --------------------------------------------
      LOOP:  cpu time   11.3133: real time   11.3217

 eigenvalue-minimisations  :  2914
 total energy-change (2. order) :-0.4194299E-06  (-0.1938969E-05)
 number of electron     750.0000141 magnetization 
 augmentation part      234.7912278 magnetization 

 DIPCOR: dipole corrections for dipol
 direction  3 min pos   150,
 dipolmoment           0.000000      0.000000     -1.150869 electrons x Angstroem
 Tr[quadrupol]    -30401.634566

 energy correction for charged system         0.000000 eV
 dipol+quadrupol energy correction           -0.031624 eV
 added-field ion interaction        -36.623561 eV  (added to PSCEN)


 eigenvalues of (default mixing * dielectric matrix)
  average eigenvalue GAMMA=   0.4829
  1.1419  0.2111  0.0957

  free energy =  -0.888552513875E+03  energy without entropy=  -0.888520029809E+03


--------------------------------------------------------------------------------------------------------




--------------------------------------- Iteration     31(   5)  ---------------------------------------


    POTLOK:  cpu time    0.0925: real time    0.0935
    SETDIJ:  cpu time    0.0106: real time    0.0106
    EDDIAG:  cpu time    3.6214: real time    3.6230
  RMM-DIIS:  cpu time    5.2133: real time    5.2164
    ORTHCH:  cpu time    1.5206: real time    1.5209
       DOS:  cpu time    0.0008: real time    0.0008
    --------------------------------------------
      LOOP:  cpu time   10.4591: real time   10.4652

 eigenvalue-minimisations  :  2461
 total energy-change (2. order) : 0.8029892E-05  (-0.1134590E-05)
 number of electron     750.0000141 magnetization 
 augmentation part      234.7912278 magnetization 

 DIPCOR: dipole corrections for dipol
 direction  3 min pos   150,
 dipolmoment           0.000000      0.000000     -1.152073 electrons x Angstroem
 Tr[quadrupol]    -30401.631416

 energy correction for charged system         0.000000 eV
 dipol+quadrupol energy correction           -0.031690 eV
 added-field ion interaction        -36.661898 eV  (added to PSCEN)


  free energy =  -0.888552505845E+03  energy without entropy=  -0.888520012539E+03


--------------------------------------------------------------------------------------------------------




------------------------ aborting loop because EDIFF is reached ----------------------------------------


    CHARGE:  cpu time    0.9742: real time    0.9746
    FORLOC:  cpu time    0.1060: real time    0.1060
    FORNL :  cpu time    3.5055: real time    3.6776
    STRESS:  cpu time   10.7482: real time   10.7586
    FORCOR:  cpu time    0.1934: real time    0.1936
    FORHAR:  cpu time    0.1110: real time    0.1110
    MIXING:  cpu time    0.0034: real time    0.0034
    OFIELD:  cpu time    0.0001: real time    0.0001

  Number of pair interactions contributing to vdW energy:  435779
  Edisp (eV):   -8.07675
    FORVDW:  cpu time    0.0584: real time    0.0584

  FORCE on cell =-STRESS in cart. coord.  units (eV):
  Direction    XX          YY          ZZ          XY          YZ          ZX
  --------------------------------------------------------------------------------------
  Alpha Z  1009.79306  1009.79306  1009.79306
  Ewald  198181.94356198663.93195************   229.15091  -438.91411   708.15981
  Hartree206593.07674206994.68017************   138.65338  -251.48388   613.44789
  E(xc)   -3465.85079 -3464.71264 -3470.45930    -0.06564    -0.63236     0.04115
  Local  ************************417981.91065  -366.05141   658.65975 -1332.87612
  n-local   742.26146   743.93684   540.55196     2.26912    -4.50455     0.66912
  augment  3828.13166  3821.08431  3843.83292     0.54914     2.23433     0.57076
  Kinetic  9109.63175  9069.45292  9211.16766    -2.98733    33.71638     9.95881
  Fock        0.00000     0.00000     0.00000     0.00000     0.00000     0.00000
  vdW        -9.10396    -9.08851    -7.14781    -0.09675     0.05997    -0.12407
  -------------------------------------------------------------------------------------
  Total    -104.58144  -106.05338  -119.12591     1.42143    -0.86448    -0.15266
  in kB     -43.80806   -44.42464   -49.90058     0.59542    -0.36212    -0.06395
  external pressure =      -46.04 kB  Pullay stress =        0.00 kB



--------------------------------------------------------------------------------------------------------



  FREE ENERGIE OF THE ION-ELECTRON SYSTEM (eV)
  ---------------------------------------------------
  free  energy   TOTEN  =      -896.62925912 eV

  energy  without entropy=     -896.59676582  energy(sigma->0) =     -896.61301247
 
 d Force = 0.1222051E-04[ 0.163E-05, 0.228E-04]  d Energy = 0.7454445E-05 0.477E-05
 d Force = 0.2596931E+00[ 0.260E+00, 0.260E+00]  d Ewald  = 0.2596936E+00-0.454E-06


--------------------------------------------------------------------------------------------------------


    POTLOK:  cpu time    0.2255: real time    0.2256


--------------------------------------------------------------------------------------------------------




--------------------------------------------------------------------------------------------------------


    WAVPRE:  cpu time    0.0799: real time    0.0813
    FEWALD:  cpu time    0.0151: real time    0.0151
    ORTHCH:  cpu time    2.3378: real time    2.3413
     LOOP+:  cpu time   87.3508: real time   87.5827


--------------------------------------- Iteration     32(   1)  ---------------------------------------


    POTLOK:  cpu time    0.0943: real time    0.0946
    SETDIJ:  cpu time    0.0105: real time    0.0105
     EDDAV:  cpu time   18.7338: real time   18.7408
       DOS:  cpu time    0.0010: real time    0.0010
    CHARGE:  cpu time    0.8617: real time    0.8623
    MIXING:  cpu time    0.0026: real time    0.0026
    --------------------------------------------
      LOOP:  cpu time   19.7039: real time   19.7117

 eigenvalue-minimisations  :  4800
 total energy-change (2. order) :-0.8820512E-04  (-0.1639537E-02)
 number of electron     750.0000140 magnetization 
 augmentation part      234.7907965 magnetization 

 DIPCOR: dipole corrections for dipol
 direction  3 min pos   150,
 dipolmoment           0.000000      0.000000     -1.151846 electrons x Angstroem
 Tr[quadrupol]    -30401.511159

 energy correction for charged system         0.000000 eV
 dipol+quadrupol energy correction           -0.031678 eV
 added-field ion interaction        -36.654693 eV  (added to PSCEN)


  free energy =  -0.888552602080E+03  energy without entropy=  -0.888520098663E+03


--------------------------------------------------------------------------------------------------------




--------------------------------------- Iteration     32(   2)  ---------------------------------------


    POTLOK:  cpu time    0.0930: real time    0.0936
    SETDIJ:  cpu time    0.0104: real time    0.0104
    EDDIAG:  cpu time    3.4972: real time    3.4997
  RMM-DIIS:  cpu time    9.4360: real time    9.4476
    ORTHCH:  cpu time    0.8427: real time    0.8430
       DOS:  cpu time    0.0008: real time    0.0008
    CHARGE:  cpu time    0.9415: real time    0.9434
    MIXING:  cpu time    0.0031: real time    0.0031
    --------------------------------------------
      LOOP:  cpu time   14.8247: real time   14.8415

 eigenvalue-minimisations  :  4689
 total energy-change (2. order) :-0.5009548E-04  (-0.3277937E-04)
 number of electron     750.0000140 magnetization 
 augmentation part      234.7907884 magnetization 

 DIPCOR: dipole corrections for dipol
 direction  3 min pos   150,
 dipolmoment           0.000000      0.000000     -1.151855 electrons x Angstroem
 Tr[quadrupol]    -30401.509926

 energy correction for charged system         0.000000 eV
 dipol+quadrupol energy correction           -0.031678 eV
 added-field ion interaction        -36.654978 eV  (added to PSCEN)


 eigenvalues of (default mixing * dielectric matrix)
  average eigenvalue GAMMA=   0.4100
  0.4100

  free energy =  -0.888552652175E+03  energy without entropy=  -0.888520162030E+03


--------------------------------------------------------------------------------------------------------




--------------------------------------- Iteration     32(   3)  ---------------------------------------


    POTLOK:  cpu time    0.0967: real time    0.0977
    SETDIJ:  cpu time    0.0105: real time    0.0105
    EDDIAG:  cpu time    3.5054: real time    3.5071
  RMM-DIIS:  cpu time    7.0748: real time    7.0806
    ORTHCH:  cpu time    0.8425: real time    0.8428
       DOS:  cpu time    0.0008: real time    0.0008
    CHARGE:  cpu time    0.8627: real time    0.8630
    MIXING:  cpu time    0.0029: real time    0.0029
    --------------------------------------------
      LOOP:  cpu time   12.3963: real time   12.4053

 eigenvalue-minimisations  :  3458
 total energy-change (2. order) : 0.2159723E-04  (-0.4234344E-05)
 number of electron     750.0000140 magnetization 
 augmentation part      234.7908831 magnetization 

 DIPCOR: dipole corrections for dipol
 direction  3 min pos   150,
 dipolmoment           0.000000      0.000000     -1.151426 electrons x Angstroem
 Tr[quadrupol]    -30401.511046

 energy correction for charged system         0.000000 eV
 dipol+quadrupol energy correction           -0.031655 eV
 added-field ion interaction        -36.641339 eV  (added to PSCEN)


 eigenvalues of (default mixing * dielectric matrix)
  average eigenvalue GAMMA=   0.7740
  1.3863  0.1618

  free energy =  -0.888552630578E+03  energy without entropy=  -0.888520126792E+03


--------------------------------------------------------------------------------------------------------




--------------------------------------- Iteration     32(   4)  ---------------------------------------


    POTLOK:  cpu time    0.0931: real time    0.0938
    SETDIJ:  cpu time    0.0105: real time    0.0105
    EDDIAG:  cpu time    3.5082: real time    3.5100
  RMM-DIIS:  cpu time    6.3408: real time    6.3436
    ORTHCH:  cpu time    0.8498: real time    0.8501
       DOS:  cpu time    0.0008: real time    0.0008
    CHARGE:  cpu time    0.8637: real time    0.8639
    MIXING:  cpu time    0.0031: real time    0.0031
    --------------------------------------------
      LOOP:  cpu time   11.6700: real time   11.6758

 eigenvalue-minimisations  :  3092
 total energy-change (2. order) :-0.1816694E-04  (-0.2637150E-05)
 number of electron     750.0000140 magnetization 
 augmentation part      234.7907961 magnetization 

 DIPCOR: dipole corrections for dipol
 direction  3 min pos   150,
 dipolmoment           0.000000      0.000000     -1.153092 electrons x Angstroem
 Tr[quadrupol]    -30401.506005

 energy correction for charged system         0.000000 eV
 dipol+quadrupol energy correction           -0.031746 eV
 added-field ion interaction        -36.694344 eV  (added to PSCEN)


 eigenvalues of (default mixing * dielectric matrix)
  average eigenvalue GAMMA=   0.6298
  1.5504  0.1955  0.1434

  free energy =  -0.888552648745E+03  energy without entropy=  -0.888520126246E+03


--------------------------------------------------------------------------------------------------------




--------------------------------------- Iteration     32(   5)  ---------------------------------------


    POTLOK:  cpu time    0.0928: real time    0.0938
    SETDIJ:  cpu time    0.0104: real time    0.0104
    EDDIAG:  cpu time    3.4898: real time    3.4949
  RMM-DIIS:  cpu time    6.0340: real time    6.0370
    ORTHCH:  cpu time    0.8443: real time    0.8445
       DOS:  cpu time    0.0008: real time    0.0008
    CHARGE:  cpu time    0.8679: real time    0.8682
    MIXING:  cpu time    0.0035: real time    0.0035
    --------------------------------------------
      LOOP:  cpu time   11.3435: real time   11.3530

 eigenvalue-minimisations  :  2832
 total energy-change (2. order) : 0.2081617E-04  (-0.1424500E-05)
 number of electron     750.0000140 magnetization 
 augmentation part      234.7910194 magnetization 

 DIPCOR: dipole corrections for dipol
 direction  3 min pos   150,
 dipolmoment           0.000000      0.000000     -1.150836 electrons x Angstroem
 Tr[quadrupol]    -30401.511796

 energy correction for charged system         0.000000 eV
 dipol+quadrupol energy correction           -0.031622 eV
 added-field ion interaction        -36.622541 eV  (added to PSCEN)


 eigenvalues of (default mixing * dielectric matrix)
  average eigenvalue GAMMA=   0.6548
  1.8147  0.5440  0.1633  0.0971

  free energy =  -0.888552627929E+03  energy without entropy=  -0.888520129134E+03


--------------------------------------------------------------------------------------------------------




--------------------------------------- Iteration     32(   6)  ---------------------------------------


    POTLOK:  cpu time    0.0929: real time    0.0946
    SETDIJ:  cpu time    0.0105: real time    0.0105
    EDDIAG:  cpu time    3.4980: real time    3.4991
  RMM-DIIS:  cpu time    5.1740: real time    5.1769
    ORTHCH:  cpu time    0.8392: real time    0.8394
       DOS:  cpu time    0.0008: real time    0.0008
    --------------------------------------------
      LOOP:  cpu time    9.6153: real time    9.6213

 eigenvalue-minimisations  :  2461
 total energy-change (2. order) : 0.2068649E-05  (-0.1092969E-05)
 number of electron     750.0000140 magnetization 
 augmentation part      234.7910194 magnetization 

 DIPCOR: dipole corrections for dipol
 direction  3 min pos   150,
 dipolmoment           0.000000      0.000000     -1.151798 electrons x Angstroem
 Tr[quadrupol]    -30401.509022

 energy correction for charged system         0.000000 eV
 dipol+quadrupol energy correction           -0.031675 eV
 added-field ion interaction        -36.653166 eV  (added to PSCEN)


  free energy =  -0.888552625860E+03  energy without entropy=  -0.888520127831E+03


--------------------------------------------------------------------------------------------------------




------------------------ aborting loop because EDIFF is reached ----------------------------------------


    CHARGE:  cpu time    0.8602: real time    0.8607
    FORLOC:  cpu time    0.0515: real time    0.0515
    FORNL :  cpu time    3.5296: real time    3.5307
    STRESS:  cpu time   10.4689: real time   10.4765
    FORCOR:  cpu time    0.1201: real time    0.1201
    FORHAR:  cpu time    0.0664: real time    0.0666
    MIXING:  cpu time    0.0036: real time    0.0036
    OFIELD:  cpu time    0.0001: real time    0.0001

  Number of pair interactions contributing to vdW energy:  435777
  Edisp (eV):   -8.07671
    FORVDW:  cpu time    0.0584: real time    0.0584

  FORCE on cell =-STRESS in cart. coord.  units (eV):
  Direction    XX          YY          ZZ          XY          YZ          ZX
  --------------------------------------------------------------------------------------
  Alpha Z  1009.79306  1009.79306  1009.79306
  Ewald  198182.19601198663.53742************   229.25502  -439.01326   707.77075
  Hartree206593.10996206994.52884************   138.45458  -251.45011   613.22295
  E(xc)   -3465.84855 -3464.71233 -3470.45771    -0.06508    -0.63232     0.04063
  Local  ************************417981.55375  -365.94385   658.71933 -1332.27114
  n-local   742.26588   743.93621   540.54873     2.26849    -4.50755     0.66773
  augment  3828.12697  3821.08887  3843.83317     0.54619     2.23482     0.57153
  Kinetic  9109.60893  9069.47136  9211.17617    -3.00195    33.72366     9.98323
  Fock        0.00000     0.00000     0.00000     0.00000     0.00000     0.00000
  vdW        -9.10392    -9.08852    -7.14782    -0.09677     0.05994    -0.12408
  -------------------------------------------------------------------------------------
  Total    -104.58128  -106.04319  -119.12743     1.41663    -0.86548    -0.13841
  in kB     -43.80799   -44.42037   -49.90122     0.59341    -0.36254    -0.05798
  external pressure =      -46.04 kB  Pullay stress =        0.00 kB



--------------------------------------------------------------------------------------------------------



  FREE ENERGIE OF THE ION-ELECTRON SYSTEM (eV)
  ---------------------------------------------------
  free  energy   TOTEN  =      -896.62933330 eV

  energy  without entropy=     -896.59683527  energy(sigma->0) =     -896.61308428
 
 d Force = 0.8033468E-04[ 0.618E-04, 0.989E-04]  d Energy = 0.7417657E-04 0.616E-05
 d Force = 0.2105209E+00[ 0.211E+00, 0.210E+00]  d Ewald  = 0.2105206E+00 0.344E-06


--------------------------------------------------------------------------------------------------------


    POTLOK:  cpu time    0.1052: real time    0.1054


--------------------------------------------------------------------------------------------------------


 Conjugate gradient step on ions:
 trial-energy change:   -0.000074  1 .order   -0.000080   -0.000099   -0.000062
  (g-gl).g = 0.868E-04      g.g   = 0.880E-04  gl.gl    = 0.651E-04
 g(Force)  = 0.880E-04   g(Stress)= 0.000E+00 ortho     = 0.157E-05
 gamma     =   1.33223
 trial     =   1.09725
 opt step  =   2.92806  (harmonic =   2.92806) maximal distance =0.00285494
 next E    =  -896.629391   (d E  =  -0.00013)


--------------------------------------------------------------------------------------------------------


  
 reached required accuracy - stopping structural energy minimisation
     LOOP+:  cpu time   94.8652: real time   94.9316
    4ORBIT:  cpu time    0.0000: real time    0.0000

 total amount of memory used by VASP MPI-rank0   177438. kBytes
=======================================================================

   base      :      30000. kBytes
   nonlr-proj:      37007. kBytes
   fftplans  :       6642. kBytes
   grid      :      34272. kBytes
   one-center:       1741. kBytes
   wavefun   :      67776. kBytes
 
  
  
 General timing and accounting informations for this job:
 ========================================================
  
                  Total CPU time used (sec):     3922.210
                            User time (sec):     3886.832
                          System time (sec):       35.378
                         Elapsed time (sec):     3930.621
  
                   Maximum memory used (kb):      515552.
                   Average memory used (kb):           0.
  
                          Minor page faults:      3945967
                          Major page faults:            0
                 Voluntary context switches:         7071
