 vasp.5.4.4.18Apr17-6-g9f103f2a35 (build Jun 30 2017 19:19:18) complex          
  
 executed on         MareNostrum4 date 2022.04.19  22:26:08
 running on   48 total cores
 distrk:  each k-point on   48 cores,    1 groups
 distr:  one band on NCORES_PER_BAND=   1 cores,   48 groups


--------------------------------------------------------------------------------------------------------


 INCAR:
 POTCAR:    PAW_PBE Ni 02Aug2007                  
 POTCAR:    PAW_PBE C 08Apr2002                   
 POTCAR:    PAW_PBE H 15Jun2001                   
 POTCAR:    PAW_PBE O 08Apr2002                   

 ----------------------------------------------------------------------------- 
|                                                                             |
|           W    W    AA    RRRRR   N    N  II  N    N   GGGG   !!!           |
|           W    W   A  A   R    R  NN   N  II  NN   N  G    G  !!!           |
|           W    W  A    A  R    R  N N  N  II  N N  N  G       !!!           |
|           W WW W  AAAAAA  RRRRR   N  N N  II  N  N N  G  GGG   !            |
|           WW  WW  A    A  R   R   N   NN  II  N   NN  G    G                |
|           W    W  A    A  R    R  N    N  II  N    N   GGGG   !!!           |
|                                                                             |
|      For optimal performance we recommend to set                            |
|        NCORE= 4 - approx SQRT( number of cores)                             |
|      NCORE specifies how many cores store one orbital (NPAR=cpu/NCORE).     |
|      This setting can  greatly improve the performance of VASP for DFT.     |
|      The default,   NCORE=1            might be grossly inefficient         |
|      on modern multi-core architectures or massively parallel machines.     |
|      Do your own testing !!!!                                               |
|      Unfortunately you need to use the default for GW and RPA calculations. |
|      (for HF NCORE is supported but not extensively tested yet)             |
|                                                                             |
 ----------------------------------------------------------------------------- 

 POTCAR:    PAW_PBE Ni 02Aug2007                  
  local pseudopotential read in
  partial core-charges read in
  partial kinetic energy density read in
  atomic valenz-charges read in
  non local Contribution for L=           2  read in
    real space projection operators read in
  non local Contribution for L=           2  read in
    real space projection operators read in
  non local Contribution for L=           0  read in
    real space projection operators read in
  non local Contribution for L=           0  read in
    real space projection operators read in
  non local Contribution for L=           1  read in
    real space projection operators read in
  non local Contribution for L=           1  read in
    real space projection operators read in
    PAW grid and wavefunctions read in
 
   number of l-projection  operators is LMAX  =           6
   number of lm-projection operators is LMMAX =          18
 
 POTCAR:    PAW_PBE C 08Apr2002                   
  local pseudopotential read in
  partial core-charges read in
  partial kinetic energy density read in
  atomic valenz-charges read in
  non local Contribution for L=           0  read in
    real space projection operators read in
  non local Contribution for L=           0  read in
    real space projection operators read in
  non local Contribution for L=           1  read in
    real space projection operators read in
  non local Contribution for L=           1  read in
    real space projection operators read in
    PAW grid and wavefunctions read in
 
   number of l-projection  operators is LMAX  =           4
   number of lm-projection operators is LMMAX =           8
 
 POTCAR:    PAW_PBE H 15Jun2001                   
  local pseudopotential read in
  atomic valenz-charges read in
  non local Contribution for L=           0  read in
    real space projection operators read in
  non local Contribution for L=           0  read in
    real space projection operators read in
  non local Contribution for L=           1  read in
    real space projection operators read in
    PAW grid and wavefunctions read in
 
   number of l-projection  operators is LMAX  =           3
   number of lm-projection operators is LMMAX =           5
 
 POTCAR:    PAW_PBE O 08Apr2002                   
  local pseudopotential read in
  partial core-charges read in
  partial kinetic energy density read in
  kinetic energy density of atom read in
  atomic valenz-charges read in
  non local Contribution for L=           0  read in
    real space projection operators read in
  non local Contribution for L=           0  read in
    real space projection operators read in
  non local Contribution for L=           1  read in
    real space projection operators read in
  non local Contribution for L=           1  read in
    real space projection operators read in
    PAW grid and wavefunctions read in
 
   number of l-projection  operators is LMAX  =           4
   number of lm-projection operators is LMMAX =           8
 
 Optimization of the real space projectors (new method)

 maximal supplied QI-value         = 16.25
 optimisation between [QCUT,QGAM] = [ 10.73, 21.61] = [ 32.22,130.83] Ry 
 Optimized for a Real-space Cutoff    1.34 Angstroem

   l    n(q)    QCUT    max X(q) W(low)/X(q) W(high)/X(q)  e(spline) 
   2      8    10.726    60.317    0.47E-03    0.39E-03    0.97E-07
   2      8    10.726    55.921    0.48E-03    0.39E-03    0.10E-06
   0      9    10.726    51.690    0.35E-03    0.32E-03    0.97E-07
   0      9    10.726    30.015    0.31E-03    0.29E-03    0.88E-07
   1      8    10.726    18.849    0.34E-03    0.47E-04    0.17E-06
   1      8    10.726    14.624    0.29E-03    0.31E-04    0.15E-06
 Optimization of the real space projectors (new method)

 maximal supplied QI-value         = 25.13
 optimisation between [QCUT,QGAM] = [ 10.81, 21.61] = [ 32.71,130.83] Ry 
 Optimized for a Real-space Cutoff    1.23 Angstroem

   l    n(q)    QCUT    max X(q) W(low)/X(q) W(high)/X(q)  e(spline) 
   0      8    10.807   115.676    0.36E-03    0.72E-03    0.24E-06
   0      8    10.807    87.132    0.35E-03    0.71E-03    0.24E-06
   1      7    10.807     4.429    0.19E-03    0.39E-03    0.11E-06
   1      7    10.807     2.733    0.14E-03    0.28E-03    0.13E-06
 Optimization of the real space projectors (new method)

 maximal supplied QI-value         = 34.20
 optimisation between [QCUT,QGAM] = [ 10.60, 21.55] = [ 31.48,130.03] Ry 
 Optimized for a Real-space Cutoff    1.23 Angstroem

   l    n(q)    QCUT    max X(q) W(low)/X(q) W(high)/X(q)  e(spline) 
   0      8    10.603    19.460    0.37E-03    0.59E-03    0.23E-06
   0      8    10.603    12.209    0.35E-03    0.56E-03    0.22E-06
   1      7    10.603     4.655    0.70E-04    0.28E-03    0.29E-06
 Optimization of the real space projectors (new method)

 maximal supplied QI-value         = 24.76
 optimisation between [QCUT,QGAM] = [ 10.64, 21.54] = [ 31.73,129.89] Ry 
 Optimized for a Real-space Cutoff    1.23 Angstroem

   l    n(q)    QCUT    max X(q) W(low)/X(q) W(high)/X(q)  e(spline) 
   0      8    10.645    20.381    0.38E-03    0.60E-03    0.15E-06
   0      8    10.645    15.268    0.40E-03    0.65E-03    0.17E-06
   1      7    10.645     5.964    0.30E-03    0.63E-03    0.18E-06
   1      7    10.645     5.382    0.24E-03    0.53E-03    0.16E-06
  PAW_PBE Ni 02Aug2007                  :
 energy of atom  1       EATOM=-1077.6739
 kinetic energy error for atom=    0.0038 (will be added to EATOM!!)
  PAW_PBE C 08Apr2002                   :
 energy of atom  2       EATOM= -147.1560
 kinetic energy error for atom=    0.0116 (will be added to EATOM!!)
  PAW_PBE H 15Jun2001                   :
 energy of atom  3       EATOM=  -12.4884
 kinetic energy error for atom=    0.0045 (will be added to EATOM!!)
  PAW_PBE O 08Apr2002                   :
 energy of atom  4       EATOM= -432.3788
 kinetic energy error for atom=    0.0389 (will be added to EATOM!!)
 
 
 POSCAR: Ni  C  H  O                             
  positions in cartesian coordinates
  No initial velocities read in
 exchange correlation table for  LEXCH =        8
   RHO(1)=    0.500       N(1)  =     2000
   RHO(2)=  100.500       N(2)  =     4000
 


--------------------------------------------------------------------------------------------------------


 ion  position               nearest neighbor table
   1  0.000  0.250  0.190-  30 2.46  53 2.46  54 2.46   4 2.49   2 2.49  28 2.49   6 2.49  25 2.49
                             5 2.49
   2  0.000  0.500  0.190-  31 2.46  54 2.46  55 2.46   3 2.49   1 2.49  25 2.49   7 2.49  26 2.49
                             6 2.49
   3  0.000  0.750  0.190-  32 2.46  55 2.46  56 2.46   4 2.49   2 2.49  26 2.49   8 2.49  27 2.49
                             7 2.49
   4  0.000  1.000  0.190-  29 2.46  56 2.46  53 2.46   3 2.49   1 2.49  27 2.49   5 2.49  28 2.49
                             8 2.49
   5  0.143  0.250  0.190-  90 2.18  34 2.46  29 2.46  30 2.46   6 2.49   8 2.49  10 2.49   4 2.49
                             9 2.49   1 2.49
   6  0.143  0.500  0.190-  35 2.46  30 2.46  31 2.46   7 2.49   5 2.49  11 2.49   1 2.49  10 2.49
                             2 2.49
   7  0.143  0.750  0.190-  36 2.46  31 2.46  32 2.46   8 2.49   6 2.49  12 2.49   2 2.49  11 2.49
                             3 2.49
   8  0.143  1.000  0.190-  33 2.46  32 2.46  29 2.46   7 2.49   5 2.49   9 2.49   3 2.49  12 2.49
                             4 2.49
   9  0.286  0.250  0.190-  86 2.14  85 2.18  38 2.46  33 2.46  34 2.46  12 2.49  10 2.49   8 2.49
                            14 2.49   5 2.49  13 2.49
  10  0.286  0.500  0.190-  89 2.02  88 2.12  39 2.46  34 2.46  35 2.46  11 2.49   9 2.49   5 2.49
                            15 2.49   6 2.49  14 2.49
  11  0.286  0.750  0.190-  40 2.46  35 2.46  36 2.46  12 2.49  10 2.49   6 2.49  16 2.49   7 2.49
                            15 2.49
  12  0.286  1.000  0.190-  37 2.46  36 2.46  33 2.46  11 2.49   9 2.49   7 2.49  13 2.49   8 2.49
                            16 2.49
  13  0.429  0.250  0.190-  42 2.46  37 2.46  38 2.46  16 2.49  14 2.49  18 2.49  12 2.49   9 2.49
                            17 2.49
  14  0.429  0.500  0.190-  87 2.04  43 2.46  38 2.46  39 2.46  13 2.49  15 2.49   9 2.49  19 2.49
                            18 2.49  10 2.49  88 2.56
  15  0.429  0.750  0.190-  44 2.46  39 2.46  40 2.46  16 2.49  14 2.49  20 2.49  10 2.49  11 2.49
                            19 2.49
  16  0.429  1.000  0.190-  41 2.46  40 2.46  37 2.46  15 2.49  13 2.49  17 2.49  11 2.49  20 2.49
                            12 2.49
  17  0.571  0.250  0.190-  95 2.02  46 2.46  41 2.46  42 2.46  18 2.49  20 2.49  22 2.49  16 2.49
                            21 2.49  13 2.49  94 2.52
  18  0.571  0.500  0.190- 124 2.11  47 2.46  42 2.46  43 2.46  17 2.49  19 2.49  23 2.49  13 2.49
                            22 2.49  14 2.49
  19  0.571  0.750  0.190-  48 2.46  43 2.46  44 2.46  20 2.49  18 2.49  24 2.49  14 2.49  23 2.49
                            15 2.49
  20  0.571  1.000  0.190-  45 2.46  44 2.46  41 2.46  19 2.49  17 2.49  21 2.49  15 2.49  24 2.49
                            16 2.49
  21  0.714  0.250  0.190-  99 2.10  97 2.13  50 2.46  45 2.46  46 2.46  24 2.49  22 2.49  20 2.49
                            26 2.49  17 2.49  25 2.49
  22  0.714  0.500  0.190-  96 2.18  94 2.19  51 2.46  46 2.46  47 2.46  23 2.49  21 2.49  17 2.49
                            27 2.49  18 2.49  26 2.49
  23  0.714  0.750  0.190-  52 2.46  47 2.46  48 2.46  24 2.49  22 2.49  18 2.49  28 2.49  19 2.49
                            27 2.49
  24  0.714  1.000  0.190-  49 2.46  48 2.46  45 2.46  23 2.49  21 2.49  19 2.49  25 2.49  20 2.49
                            28 2.49
  25  0.857  0.250  0.190-  54 2.46  49 2.46  50 2.46  28 2.49  26 2.49   2 2.49  24 2.49   1 2.49
                            21 2.49
  26  0.857  0.500  0.190-  98 2.22  55 2.46  50 2.46  51 2.46  25 2.49  27 2.49   3 2.49  21 2.49
                             2 2.49  22 2.49
  27  0.857  0.750  0.190-  56 2.46  51 2.46  52 2.46  28 2.49  26 2.49   4 2.49  22 2.49   3 2.49
                            23 2.49
  28  0.857  1.000  0.190-  53 2.46  52 2.46  49 2.46  27 2.49  25 2.49   1 2.49  23 2.49   4 2.49
                            24 2.49
  29  0.095  0.083  0.095-   4 2.46   5 2.46   8 2.46  60 2.46  57 2.46  61 2.46  32 2.49  30 2.49
                            34 2.49  56 2.49  33 2.49  53 2.49
  30  0.095  0.333  0.095-   1 2.46   6 2.46   5 2.46  57 2.46  58 2.46  62 2.46  31 2.49  29 2.49
                            35 2.49  53 2.49  34 2.49  54 2.49
  31  0.095  0.583  0.095-   2 2.46   7 2.46   6 2.46  58 2.46  59 2.46  63 2.46  32 2.49  30 2.49
                            36 2.49  54 2.49  35 2.49  55 2.49
  32  0.095  0.833  0.095-   3 2.46   8 2.46   7 2.46  59 2.46  60 2.46  64 2.46  31 2.49  29 2.49
                            33 2.49  55 2.49  36 2.49  56 2.49
  33  0.238  0.083  0.095-   8 2.46   9 2.46  12 2.46  64 2.46  61 2.46  65 2.46  36 2.49  34 2.49
                            32 2.49  38 2.49  29 2.49  37 2.49
  34  0.238  0.333  0.095-   5 2.46  10 2.46   9 2.46  61 2.46  62 2.46  66 2.46  35 2.49  33 2.49
                            29 2.49  39 2.49  30 2.49  38 2.49
  35  0.238  0.583  0.095-   6 2.46  11 2.46  10 2.46  62 2.46  63 2.46  67 2.46  36 2.49  34 2.49
                            30 2.49  40 2.49  31 2.49  39 2.49
  36  0.238  0.833  0.095-   7 2.46  12 2.46  11 2.46  63 2.46  64 2.46  68 2.46  35 2.49  33 2.49
                            31 2.49  37 2.49  32 2.49  40 2.49
  37  0.381  0.083  0.095-  12 2.46  13 2.46  16 2.46  68 2.46  65 2.46  69 2.46  40 2.49  38 2.49
                            42 2.49  36 2.49  33 2.49  41 2.49
  38  0.381  0.333  0.095-   9 2.46  14 2.46  13 2.46  65 2.46  66 2.46  70 2.46  39 2.49  37 2.49
                            43 2.49  33 2.49  34 2.49  42 2.49
  39  0.381  0.583  0.095-  10 2.46  15 2.46  14 2.46  66 2.46  67 2.46  71 2.46  40 2.49  38 2.49
                            44 2.49  34 2.49  35 2.49  43 2.49
  40  0.381  0.833  0.095-  11 2.46  16 2.46  15 2.46  67 2.46  68 2.46  72 2.46  39 2.49  37 2.49
                            41 2.49  35 2.49  44 2.49  36 2.49
  41  0.524  0.083  0.095-  16 2.46  17 2.46  20 2.46  72 2.46  69 2.46  73 2.46  44 2.49  42 2.49
                            46 2.49  40 2.49  45 2.49  37 2.49
  42  0.524  0.333  0.095-  13 2.46  18 2.46  17 2.46  69 2.46  70 2.46  74 2.46  43 2.49  41 2.49
                            47 2.49  37 2.49  46 2.49  38 2.49
  43  0.524  0.583  0.095-  14 2.46  19 2.46  18 2.46  70 2.46  71 2.46  75 2.46  44 2.49  42 2.49
                            48 2.49  38 2.49  47 2.49  39 2.49
  44  0.524  0.833  0.095-  15 2.46  20 2.46  19 2.46  71 2.46  72 2.46  76 2.46  43 2.49  41 2.49
                            45 2.49  39 2.49  48 2.49  40 2.49
  45  0.667  0.083  0.095-  20 2.46  21 2.46  24 2.46  76 2.46  73 2.46  77 2.46  48 2.49  46 2.49
                            44 2.49  50 2.49  41 2.49  49 2.49
  46  0.667  0.333  0.095-  17 2.46  22 2.46  21 2.46  73 2.46  74 2.46  78 2.46  47 2.49  45 2.49
                            41 2.49  51 2.49  42 2.49  50 2.49
  47  0.667  0.583  0.095-  18 2.46  23 2.46  22 2.46  74 2.46  75 2.46  79 2.46  48 2.49  46 2.49
                            42 2.49  52 2.49  43 2.49  51 2.49
  48  0.667  0.833  0.095-  19 2.46  24 2.46  23 2.46  75 2.46  76 2.46  80 2.46  47 2.49  45 2.49
                            43 2.49  49 2.49  44 2.49  52 2.49
  49  0.810  0.083  0.095-  24 2.46  25 2.46  28 2.46  80 2.46  77 2.46  81 2.46  52 2.49  50 2.49
                            54 2.49  48 2.49  53 2.49  45 2.49
  50  0.810  0.333  0.095-  21 2.46  26 2.46  25 2.46  77 2.46  78 2.46  82 2.46  51 2.49  49 2.49
                            55 2.49  45 2.49  54 2.49  46 2.49
  51  0.810  0.583  0.095-  22 2.46  27 2.46  26 2.46  78 2.46  79 2.46  83 2.46  52 2.49  50 2.49
                            56 2.49  46 2.49  55 2.49  47 2.49
  52  0.810  0.833  0.095-  23 2.46  28 2.46  27 2.46  79 2.46  80 2.46  84 2.46  51 2.49  49 2.49
                            53 2.49  47 2.49  56 2.49  48 2.49
  53  0.952  0.083  0.095-  28 2.46   1 2.46   4 2.46  84 2.46  81 2.46  57 2.46  56 2.49  54 2.49
                            52 2.49  30 2.49  49 2.49  29 2.49
  54  0.952  0.333  0.095-  25 2.46   2 2.46   1 2.46  81 2.46  82 2.46  58 2.46  55 2.49  53 2.49
                            49 2.49  31 2.49  50 2.49  30 2.49
  55  0.952  0.583  0.095-  26 2.46   3 2.46   2 2.46  82 2.46  83 2.46  59 2.46  56 2.49  54 2.49
                            50 2.49  32 2.49  51 2.49  31 2.49
  56  0.952  0.833  0.095-  27 2.46   4 2.46   3 2.46  83 2.46  84 2.46  60 2.46  55 2.49  53 2.49
                            51 2.49  29 2.49  52 2.49  32 2.49
  57  0.048  0.167  0.000-  30 2.46  29 2.46  53 2.46  58 2.49  60 2.49  62 2.49  84 2.49  81 2.49
                            61 2.49
  58  0.048  0.417  0.000-  31 2.46  30 2.46  54 2.46  57 2.49  59 2.49  63 2.49  81 2.49  62 2.49
                            82 2.49
  59  0.048  0.667  0.000-  32 2.46  31 2.46  55 2.46  58 2.49  60 2.49  64 2.49  82 2.49  63 2.49
                            83 2.49
  60  0.048  0.917  0.000-  29 2.46  32 2.46  56 2.46  57 2.49  59 2.49  61 2.49  83 2.49  64 2.49
                            84 2.49
  61  0.190  0.167  0.000-  34 2.46  33 2.46  29 2.46  62 2.49  64 2.49  66 2.49  60 2.49  65 2.49
                            57 2.49
  62  0.190  0.417  0.000-  35 2.46  34 2.46  30 2.46  61 2.49  63 2.49  67 2.49  57 2.49  66 2.49
                            58 2.49
  63  0.190  0.667  0.000-  36 2.46  35 2.46  31 2.46  62 2.49  64 2.49  68 2.49  58 2.49  67 2.49
                            59 2.49
  64  0.190  0.917  0.000-  33 2.46  36 2.46  32 2.46  61 2.49  63 2.49  65 2.49  59 2.49  68 2.49
                            60 2.49
  65  0.333  0.167  0.000-  38 2.46  37 2.46  33 2.46  66 2.49  68 2.49  64 2.49  70 2.49  61 2.49
                            69 2.49
  66  0.333  0.417  0.000-  39 2.46  38 2.46  34 2.46  65 2.49  67 2.49  61 2.49  71 2.49  62 2.49
                            70 2.49
  67  0.333  0.667  0.000-  40 2.46  39 2.46  35 2.46  66 2.49  68 2.49  62 2.49  72 2.49  63 2.49
                            71 2.49
  68  0.333  0.917  0.000-  37 2.46  40 2.46  36 2.46  65 2.49  67 2.49  63 2.49  69 2.49  64 2.49
                            72 2.49
  69  0.476  0.167  0.000-  42 2.46  41 2.46  37 2.46  70 2.49  72 2.49  74 2.49  68 2.49  73 2.49
                            65 2.49
  70  0.476  0.417  0.000-  43 2.46  42 2.46  38 2.46  69 2.49  71 2.49  75 2.49  65 2.49  74 2.49
                            66 2.49
  71  0.476  0.667  0.000-  44 2.46  43 2.46  39 2.46  70 2.49  72 2.49  76 2.49  66 2.49  75 2.49
                            67 2.49
  72  0.476  0.917  0.000-  41 2.46  44 2.46  40 2.46  69 2.49  71 2.49  73 2.49  67 2.49  76 2.49
                            68 2.49
  73  0.619  0.167  0.000-  46 2.46  45 2.46  41 2.46  74 2.49  76 2.49  72 2.49  78 2.49  69 2.49
                            77 2.49
  74  0.619  0.417  0.000-  47 2.46  46 2.46  42 2.46  73 2.49  75 2.49  69 2.49  79 2.49  70 2.49
                            78 2.49
  75  0.619  0.667  0.000-  48 2.46  47 2.46  43 2.46  74 2.49  76 2.49  70 2.49  80 2.49  71 2.49
                            79 2.49
  76  0.619  0.917  0.000-  45 2.46  48 2.46  44 2.46  73 2.49  75 2.49  71 2.49  77 2.49  72 2.49
                            80 2.49
  77  0.762  0.167  0.000-  50 2.46  49 2.46  45 2.46  78 2.49  80 2.49  82 2.49  76 2.49  81 2.49
                            73 2.49
  78  0.762  0.417  0.000-  51 2.46  50 2.46  46 2.46  77 2.49  79 2.49  83 2.49  73 2.49  82 2.49
                            74 2.49
  79  0.762  0.667  0.000-  52 2.46  51 2.46  47 2.46  78 2.49  80 2.49  84 2.49  74 2.49  83 2.49
                            75 2.49
  80  0.762  0.917  0.000-  49 2.46  52 2.46  48 2.46  77 2.49  79 2.49  81 2.49  75 2.49  84 2.49
                            76 2.49
  81  0.905  0.167  0.000-  54 2.46  53 2.46  49 2.46  82 2.49  84 2.49  80 2.49  58 2.49  77 2.49
                            57 2.49
  82  0.905  0.417  0.000-  55 2.46  54 2.46  50 2.46  81 2.49  83 2.49  77 2.49  59 2.49  78 2.49
                            58 2.49
  83  0.905  0.667  0.000-  56 2.46  55 2.46  51 2.46  82 2.49  84 2.49  78 2.49  60 2.49  79 2.49
                            59 2.49
  84  0.905  0.917  0.000-  53 2.46  56 2.46  52 2.46  81 2.49  83 2.49  79 2.49  57 2.49  80 2.49
                            60 2.49
  85  0.244  0.221  0.289- 123 1.37  86 1.43  90 1.47   9 2.18
  86  0.338  0.295  0.284- 102 1.09  85 1.43  87 1.47   9 2.14
  87  0.396  0.465  0.283-  88 1.47  86 1.47  92 1.54  14 2.04
  88  0.348  0.552  0.280- 103 1.10  89 1.44  87 1.47  10 2.12  14 2.56
  89  0.253  0.477  0.283- 104 1.09  88 1.44  90 1.45  10 2.02
  90  0.197  0.309  0.285- 122 1.39  89 1.45  85 1.47   5 2.18
  91  0.234  0.993  0.336- 107 1.10 106 1.10 108 1.11 123 1.43
  92  0.474  0.534  0.330- 109 1.12 125 1.43  87 1.54  93 1.54
  93  0.529  0.454  0.339- 110 1.10 124 1.45 100 1.53  92 1.54
  94  0.646  0.431  0.281- 124 1.41  96 1.44  95 1.45  22 2.19  17 2.52
  95  0.604  0.263  0.282- 112 1.09  94 1.45  97 1.46  17 2.02
  96  0.740  0.528  0.291- 127 1.38  94 1.44  98 1.45  22 2.18
  97  0.663  0.199  0.283- 113 1.09  99 1.43  95 1.46  21 2.13
  98  0.798  0.464  0.286- 114 1.09  96 1.45  99 1.45  26 2.22
  99  0.757  0.296  0.284- 115 1.09  97 1.43  98 1.45  21 2.10
 100  0.581  0.502  0.402- 116 1.10 117 1.11 126 1.43  93 1.53
 101  0.856  0.764  0.339- 120 1.10 121 1.10 119 1.11 127 1.44
 102  0.367  0.225  0.298-  86 1.09
 103  0.386  0.673  0.294-  88 1.10
 104  0.223  0.543  0.299-  89 1.09
 105  0.077  0.154  0.305- 122 0.98
 106  0.280  0.058  0.375-  91 1.10
 107  0.180  0.882  0.354-  91 1.10
 108  0.269  0.970  0.298-  91 1.11
 109  0.442  0.520  0.377-  92 1.12
 110  0.486  0.327  0.338-  93 1.10
 111  0.580  0.732  0.347- 125 0.99
 112  0.539  0.196  0.306-  95 1.09
 113  0.635  0.077  0.298-  97 1.09
 114  0.865  0.530  0.306-  98 1.09
 115  0.798  0.247  0.297-  99 1.09
 116  0.534  0.473  0.441- 100 1.10
 117  0.617  0.438  0.408- 100 1.11
 118  0.689  0.684  0.374- 126 0.99
 119  0.901  0.794  0.297- 101 1.11
 120  0.861  0.871  0.358- 101 1.10
 121  0.874  0.705  0.375- 101 1.10
 122  0.120  0.257  0.320- 105 0.98  90 1.39
 123  0.192  0.075  0.313-  85 1.37  91 1.43
 124  0.594  0.502  0.288-  94 1.41  93 1.45  18 2.11
 125  0.529  0.696  0.318- 111 0.99  92 1.43
 126  0.641  0.666  0.404- 118 0.99 100 1.43
 127  0.765  0.669  0.320-  96 1.38 101 1.44
 
  Warning from LATTYP: Monoclinic adjustement (A1->A3, A2->A1, A3->A2)!
  Warning from LATTYP: Got some problem with cell dimensions!
  Tried to take original basis but could not verify dimensions!
  LATTYP: Found a simple monoclinic cell.
 ALAT       =    18.7839874413
 B/A-ratio  =     1.1229936872
 C/A-ratio  =     1.7371079010
 COS(beta)  =    -0.9695485959
  
  Lattice vectors:
  
 A1 = (  -7.4639997487, -17.2373690552,   0.0000000000)
 A2 = (   0.0000000000,   0.0000000000, -21.0942993164)
 A3 = (  19.9039993294,  25.8560535828,   0.0000000000)


Analysis of symmetry for initial positions (statically):
=====================================================================
 Subroutine PRICEL returns:
 Original cell was already a primitive cell.
 

 Routine SETGRP: Setting up the symmetry group for a 
 simple monoclinic supercell.


 Subroutine GETGRP returns: Found  1 space group operations
 (whereof  1 operations were pure point group operations)
 out of a pool of  4 trial point group operations.


The static configuration has the point symmetry C_1 .


Analysis of symmetry for dynamics (positions and initial velocities):
=====================================================================
 Subroutine PRICEL returns:
 Original cell was already a primitive cell.
 

 Routine SETGRP: Setting up the symmetry group for a 
 simple monoclinic supercell.


 Subroutine GETGRP returns: Found  1 space group operations
 (whereof  1 operations were pure point group operations)
 out of a pool of  4 trial point group operations.


The dynamic configuration has the point symmetry C_1 .


Analysis of constrained symmetry for selective dynamics:
=====================================================================
 Subroutine PRICEL returns:
 Original cell was already a primitive cell.
 

 Routine SETGRP: Setting up the symmetry group for a 
 simple monoclinic supercell.


 Subroutine GETGRP returns: Found  1 space group operations
 (whereof  1 operations were pure point group operations)
 out of a pool of  4 trial point group operations.


The constrained configuration has the point symmetry C_1 .


Analysis of structural, dynamic, and magnetic symmetry:
=====================================================================
 Subroutine PRICEL returns:
 Original cell was already a primitive cell.
 

 Routine SETGRP: Setting up the symmetry group for a 
 simple monoclinic supercell.


 Subroutine GETGRP returns: Found  1 space group operations
 (whereof  1 operations were pure point group operations)
 out of a pool of  4 trial point group operations.


The magnetic configuration has the point symmetry C_1 .


 Subroutine INISYM returns: Found  1 space group operations
 (whereof  1 operations are pure point group operations),
 and found     1 'primitive' translations

 
 
 KPOINTS: K-POINTS                                

Automatic generation of k-mesh.
Space group operators:
 irot       det(A)        alpha          n_x          n_y          n_z        tau_x        tau_y        tau_z
    1     1.000000     0.000001     1.000000     0.000000     0.000000     0.000000     0.000000     0.000000
 
 Subroutine IBZKPT returns following result:
 ===========================================
 
 Found      5 irreducible k-points:
 
 Following reciprocal coordinates:
            Coordinates               Weight
  0.000000  0.000000  0.000000      1.000000
  0.333333 -0.000000  0.000000      2.000000
  0.000000  0.333333  0.000000      2.000000
  0.333333  0.333333  0.000000      2.000000
 -0.333333  0.333333  0.000000      2.000000
 
 Following cartesian coordinates:
            Coordinates               Weight
  0.000000  0.000000  0.000000      1.000000
  0.019139  0.011050  0.000000      2.000000
  0.000000  0.038676  0.000000      2.000000
  0.019139  0.049726  0.000000      2.000000
 -0.019139  0.027625  0.000000      2.000000
 


--------------------------------------------------------------------------------------------------------




 Dimension of arrays:
   k-points           NKPTS =      5   k-points in BZ     NKDIM =      5   number of bands    NBANDS=    672
   number of dos      NEDOS =    301   number of ions     NIONS =    127
   non local maximal  LDIM  =      6   non local SUM 2l+1 LMDIM =     18
   total plane-waves  NPLWV = 544320
   max r-space proj   IRMAX =   1785   max aug-charges    IRDMAX=   5771
   dimension x,y,z NGX =    90 NGY =   54 NGZ =  112
   dimension x,y,z NGXF=   180 NGYF=  108 NGZF=  224
   support grid    NGXF=   180 NGYF=  108 NGZF=  224
   ions per type =              84  17  20   6
   NGX,Y,Z   is equivalent  to a cutoff of   8.59,  9.02,  8.83 a.u.
   NGXF,Y,Z  is equivalent  to a cutoff of  17.18, 18.04, 17.65 a.u.

 SYSTEM =  x                                       
 POSCAR =  Ni  C  H  O                             

 Startparameter for this run:
   NWRITE =      0    write-flag & timer
   PREC   = normal    normal or accurate (medium, high low for compatibility)
   ISTART =      0    job   : 0-new  1-cont  2-samecut
   ICHARG =      2    charge: 1-file 2-atom 10-const
   ISPIN  =      2    spin polarized calculation?
   LNONCOLLINEAR =      F non collinear calculations
   LSORBIT =      F    spin-orbit coupling
   INIWAV =      1    electr: 0-lowe 1-rand  2-diag
   LASPH  =      F    aspherical Exc in radial PAW
   METAGGA=      F    non-selfconsistent MetaGGA calc.

 Electronic Relaxation 1
   ENCUT  =  450.0 eV  33.07 Ry    5.75 a.u.  30.12 17.21 36.49*2*pi/ulx,y,z
   ENINI  =  450.0     initial cutoff
   ENAUG  =  644.9 eV  augmentation charge cutoff
   NELM   =     50;   NELMIN=  5; NELMDL= -7     # of ELM steps 
   EDIFF  = 0.1E-04   stopping-criterion for ELM
   LREAL  =      T    real-space projection
   NLSPLINE    = F    spline interpolate recip. space projectors
   LCOMPAT=      F    compatible to vasp.4.4
   GGA_COMPAT  = T    GGA compatible to vasp.4.4-vasp.4.6
   LMAXPAW     = -100 max onsite density
   LMAXMIX     =    2 max onsite mixed and CHGCAR
   VOSKOWN=      0    Vosko Wilk Nusair interpolation
   ROPT   =   -0.00050  -0.00050  -0.00050  -0.00050
 Ionic relaxation
   EDIFFG = -.2E-01   stopping-criterion for IOM
   NSW    =    300    number of steps for IOM
   NBLOCK =      1;   KBLOCK =    300    inner block; outer block 
   IBRION =      2    ionic relax: 0-MD 1-quasi-New 2-CG
   NFREE  =      2    steps in history (QN), initial steepest desc. (CG)
   ISIF   =      2    stress and relaxation
   IWAVPR =     11    prediction:  0-non 1-charg 2-wave 3-comb
   ISYM   =      2    0-nonsym 1-usesym 2-fastsym
   LCORR  =      T    Harris-Foulkes like correction to forces

   POTIM  = 0.1500    time-step for ionic-motion
   TEIN   =    0.0    initial temperature
   TEBEG  =    0.0;   TEEND  =   0.0 temperature during run
   SMASS  =  -3.00    Nose mass-parameter (am)
   estimated Nose-frequenzy (Omega)   =  0.10E-29 period in steps =****** mass=  -0.693E-26a.u.
   SCALEE = 1.0000    scale energy and forces
   NPACO  =    256;   APACO  = 16.0  distance and # of slots for P.C.
   PSTRESS=    0.0 pullay stress

  Mass of Ions in am
   POMASS =  58.69 12.01  1.00 16.00
  Ionic Valenz
   ZVAL   =  10.00  4.00  1.00  6.00
  Atomic Wigner-Seitz radii
   RWIGS  =  -1.00 -1.00 -1.00 -1.00
  virtual crystal weights 
   VCA    =   1.00  1.00  1.00  1.00
   NELECT =     964.0000    total number of electrons
   NUPDOWN=      -1.0000    fix difference up-down

 DOS related values:
   EMIN   =  10.00;   EMAX   =-10.00  energy-range for DOS
   EFERMI =   0.00
   ISMEAR =     0;   SIGMA  =   0.03  broadening in eV -4-tet -1-fermi 0-gaus

 Electronic relaxation 2 (details)
   IALGO  =     68    algorithm
   LDIAG  =      T    sub-space diagonalisation (order eigenvalues)
   LSUBROT=      F    optimize rotation matrix (better conditioning)
   TURBO    =      0    0=normal 1=particle mesh
   IRESTART =      0    0=no restart 2=restart with 2 vectors
   NREBOOT  =      0    no. of reboots
   NMIN     =      0    reboot dimension
   EREF     =   0.00    reference energy to select bands
   IMIX   =      4    mixing-type and parameters
     AMIX     =   0.40;   BMIX     =  1.00
     AMIX_MAG =   1.60;   BMIX_MAG =  1.00
     AMIN     =   0.10
     WC   =   100.;   INIMIX=   1;  MIXPRE=   1;  MAXMIX= -45

 Intra band minimization:
   WEIMIN = 0.0010     energy-eigenvalue tresh-hold
   EBREAK =  0.37E-08  absolut break condition
   DEPER  =   0.30     relativ break condition  

   TIME   =   0.40     timestep for ELM

  volume/ion in A,a.u.               =      24.93       168.25
  Fermi-wavevector in a.u.,A,eV,Ry     =   1.101325  2.081203 16.502748  1.212918
  Thomas-Fermi vector in A             =   2.237751
 
 Write flags
   LWAVE        =      F    write WAVECAR
   LDOWNSAMPLE  =      F    k-point downsampling of WAVECAR
   LCHARG       =      F    write CHGCAR
   LVTOT        =      F    write LOCPOT, total local potential
   LVHAR        =      F    write LOCPOT, Hartree potential only
   LELF         =      F    write electronic localiz. function (ELF)
   LORBIT       =      0    0 simple, 1 ext, 2 COOP (PROOUT), +10 PAW based schemes


 Dipole corrections
   LMONO  =      F    monopole corrections only (constant potential shift)
   LDIPOL =      T    correct potential (dipole corrections)
   IDIPOL =      3    1-x, 2-y, 3-z, 4-all directions 
   EPSILON=  1.0000000 bulk dielectric constant

 Exchange correlation treatment:
   GGA     =    PE    GGA type
   LEXCH   =     8    internal setting for exchange type
   VOSKOWN=      0    Vosko Wilk Nusair interpolation
   LHFCALC =     F    Hartree Fock is set to
   LHFONE  =     F    Hartree Fock one center treatment
   AEXX    =    0.0000 exact exchange contribution

 Linear response parameters
   LEPSILON=     F    determine dielectric tensor
   LRPA    =     F    only Hartree local field effects (RPA)
   LNABLA  =     F    use nabla operator in PAW spheres
   LVEL    =     F    velocity operator in full k-point grid
   LINTERFAST=   F  fast interpolation
   KINTER  =     0    interpolate to denser k-point grid
   CSHIFT  =0.1000    complex shift for real part using Kramers Kronig
   OMEGAMAX=  -1.0    maximum frequency
   DEG_THRESHOLD= 0.2000000E-02 threshold for treating states as degnerate
   RTIME   =   -0.100 relaxation time in fs
  (WPLASMAI=    0.000 imaginary part of plasma frequency in eV, 0.658/RTIME)
   DFIELD  = 0.0000000 0.0000000 0.0000000 field for delta impulse in time
 
 Orbital magnetization related:
   ORBITALMAG=     F  switch on orbital magnetization
   LCHIMAG   =     F  perturbation theory with respect to B field
   DQ        =  0.001000  dq finite difference perturbation B field
   LLRAUG    =     F  two centre corrections for induced B field



--------------------------------------------------------------------------------------------------------


 conjugate gradient relaxation of ions
   using selective dynamics as specified on POSCAR
   WARNING: If single coordinates had been selected the selection of coordinates
            is made according to the corresponding   d i r e c t   coordinates!
            Don't support selection of single cartesian coordinates -- sorry ...
  !
 charge density and potential will be updated during run
 spin polarized calculation
 RMM-DIIS sequential band-by-band and
  variant of blocked Davidson during initial phase
 perform sub-space diagonalisation
    before iterative eigenvector-optimisation
 modified Broyden-mixing scheme, WC =      100.0
 initial mixing is a Kerker type mixing with AMIX =  0.4000 and BMIX =      1.0000
 Hartree-type preconditioning will be used
 using additional bands          190
 real space projection scheme for non local part
 use partial core corrections
 calculate Harris-corrections to forces 
   (improved forces if not selfconsistent)
 use gradient corrections 
 use of overlap-Matrix (Vanderbilt PP)
 Gauss-broadening in eV      SIGMA  =   0.03


--------------------------------------------------------------------------------------------------------


  energy-cutoff  :      450.00
  volume of cell :     3166.32
      direct lattice vectors                 reciprocal lattice vectors
    17.415999413  0.000000000  0.000000000     0.057418468  0.033150568  0.000000000
    -4.975999832  8.618684528  0.000000000     0.000000000  0.116026987  0.000000000
     0.000000000  0.000000000 21.094299316     0.000000000  0.000000000  0.047406173

  length of vectors
    17.415999413  9.951999664 21.094299316     0.066301136  0.116026987  0.047406173


 
 k-points in units of 2pi/SCALE and weight: K-POINTS                                
   0.00000000  0.00000000  0.00000000       0.111
   0.01913949  0.01105019  0.00000000       0.222
   0.00000000  0.03867566  0.00000000       0.222
   0.01913949  0.04972585  0.00000000       0.222
  -0.01913949  0.02762547  0.00000000       0.222
 
 k-points in reciprocal lattice and weights: K-POINTS                                
   0.00000000  0.00000000  0.00000000       0.111
   0.33333333 -0.00000000  0.00000000       0.222
   0.00000000  0.33333333  0.00000000       0.222
   0.33333333  0.33333333  0.00000000       0.222
  -0.33333333  0.33333333  0.00000000       0.222
 
 position of ions in fractional coordinates (direct lattice) 
   0.00001537  0.24997681  0.18957704
   0.00001537  0.49997681  0.18957704
   0.00001537  0.74997681  0.18957704
   0.00001537  0.99997681  0.18957704
   0.14287251  0.24997681  0.18957704
   0.14287251  0.49997681  0.18957704
   0.14287251  0.74997681  0.18957704
   0.14287251  0.99997681  0.18957704
   0.28572965  0.24997681  0.18957704
   0.28572965  0.49997681  0.18957704
   0.28572965  0.74997681  0.18957704
   0.28572965  0.99997681  0.18957704
   0.42858680  0.24997681  0.18957704
   0.42858680  0.49997681  0.18957704
   0.42858680  0.74997681  0.18957704
   0.42858680  0.99997681  0.18957704
   0.57144394  0.24997681  0.18957704
   0.57144394  0.49997681  0.18957704
   0.57144394  0.74997681  0.18957704
   0.57144394  0.99997681  0.18957704
   0.71430108  0.24997681  0.18957704
   0.71430108  0.49997681  0.18957704
   0.71430108  0.74997681  0.18957704
   0.71430108  0.99997681  0.18957704
   0.85715822  0.24997681  0.18957704
   0.85715822  0.49997681  0.18957704
   0.85715822  0.74997681  0.18957704
   0.85715822  0.99997681  0.18957704
   0.09522464  0.08331407  0.09489846
   0.09522464  0.33331407  0.09489846
   0.09522464  0.58331407  0.09489846
   0.09522464  0.83331407  0.09489846
   0.23808178  0.08331407  0.09489846
   0.23808178  0.33331407  0.09489846
   0.23808178  0.58331407  0.09489846
   0.23808178  0.83331407  0.09489846
   0.38093893  0.08331407  0.09489846
   0.38093893  0.33331407  0.09489846
   0.38093893  0.58331407  0.09489846
   0.38093893  0.83331407  0.09489846
   0.52379607  0.08331407  0.09489846
   0.52379607  0.33331407  0.09489846
   0.52379607  0.58331407  0.09489846
   0.52379607  0.83331407  0.09489846
   0.66665321  0.08331407  0.09489846
   0.66665321  0.33331407  0.09489846
   0.66665321  0.58331407  0.09489846
   0.66665321  0.83331407  0.09489846
   0.80951035  0.08331407  0.09489846
   0.80951035  0.33331407  0.09489846
   0.80951035  0.58331407  0.09489846
   0.80951035  0.83331407  0.09489846
   0.95236750  0.08331407  0.09489846
   0.95236750  0.33331407  0.09489846
   0.95236750  0.58331407  0.09489846
   0.95236750  0.83331407  0.09489846
   0.04761857  0.16666751  0.00000001
   0.04761857  0.41666751  0.00000001
   0.04761857  0.66666751  0.00000001
   0.04761857  0.91666751  0.00000001
   0.19047572  0.16666751  0.00000001
   0.19047572  0.41666751  0.00000001
   0.19047572  0.66666751  0.00000001
   0.19047572  0.91666751  0.00000001
   0.33333286  0.16666751  0.00000001
   0.33333286  0.41666751  0.00000001
   0.33333286  0.66666751  0.00000001
   0.33333286  0.91666751  0.00000001
   0.47619000  0.16666751  0.00000001
   0.47619000  0.41666751  0.00000001
   0.47619000  0.66666751  0.00000001
   0.47619000  0.91666751  0.00000001
   0.61904714  0.16666751  0.00000001
   0.61904714  0.41666751  0.00000001
   0.61904714  0.66666751  0.00000001
   0.61904714  0.91666751  0.00000001
   0.76190429  0.16666751  0.00000001
   0.76190429  0.41666751  0.00000001
   0.76190429  0.66666751  0.00000001
   0.76190429  0.91666751  0.00000001
   0.90476143  0.16666751  0.00000001
   0.90476143  0.41666751  0.00000001
   0.90476143  0.66666751  0.00000001
   0.90476143  0.91666751  0.00000001
   0.24395548  0.22140306  0.28863516
   0.33832669  0.29541546  0.28363413
   0.39605505  0.46497723  0.28321837
   0.34840781  0.55150227  0.27969001
   0.25320029  0.47657293  0.28258558
   0.19701179  0.30906847  0.28514224
   0.23371067  0.99269722  0.33641422
   0.47395277  0.53434867  0.33020737
   0.52930279  0.45353757  0.33902275
   0.64632507  0.43095417  0.28143482
   0.60373556  0.26288536  0.28232671
   0.73993766  0.52835154  0.29141526
   0.66263148  0.19853963  0.28334638
   0.79800285  0.46414331  0.28588042
   0.75674191  0.29649048  0.28412732
   0.58076760  0.50228997  0.40158084
   0.85631426  0.76436835  0.33911267
   0.36747422  0.22527946  0.29816939
   0.38551647  0.67345729  0.29434392
   0.22263480  0.54347688  0.29874080
   0.07663483  0.15366974  0.30464340
   0.28009243  0.05810510  0.37513923
   0.17976255  0.88157528  0.35378062
   0.26902621  0.96963816  0.29777564
   0.44189582  0.52017386  0.37739058
   0.48551717  0.32655984  0.33843372
   0.57963071  0.73162529  0.34698990
   0.53931912  0.19646757  0.30560441
   0.63468413  0.07727809  0.29770145
   0.86475703  0.52990478  0.30572695
   0.79808147  0.24666057  0.29712284
   0.53386039  0.47309791  0.44114442
   0.61668351  0.43785293  0.40796065
   0.68889346  0.68420986  0.37359901
   0.90066926  0.79391330  0.29736319
   0.86127522  0.87067974  0.35841235
   0.87379595  0.70458586  0.37540582
   0.11985632  0.25747005  0.32049021
   0.19173513  0.07508021  0.31307099
   0.59374993  0.50174880  0.28800341
   0.52908210  0.69611257  0.31755190
   0.64101814  0.66618383  0.40361433
   0.76504693  0.66926501  0.32036127
 
 position of ions in cartesian coordinates  (Angst):
  -1.24361694  2.15447126  3.99899477
  -2.48761690  4.30914239  3.99899477
  -3.73161686  6.46381352  3.99899477
  -4.97561681  8.61848466  3.99899477
   1.24438298  2.15447126  3.99899477
   0.00038302  4.30914239  3.99899477
  -1.24361694  6.46381352  3.99899477
  -2.48761690  8.61848466  3.99899477
   3.73238289  2.15447126  3.99899477
   2.48838294  4.30914239  3.99899477
   1.24438298  6.46381352  3.99899477
   0.00038302  8.61848466  3.99899477
   6.22038281  2.15447126  3.99899477
   4.97638285  4.30914239  3.99899477
   3.73238289  6.46381352  3.99899477
   2.48838294  8.61848466  3.99899477
   8.70838273  2.15447126  3.99899477
   7.46438277  4.30914239  3.99899477
   6.22038281  6.46381352  3.99899477
   4.97638285  8.61848466  3.99899477
  11.19638264  2.15447126  3.99899477
   9.95238268  4.30914239  3.99899477
   8.70838273  6.46381352  3.99899477
   7.46438277  8.61848466  3.99899477
  13.68438256  2.15447126  3.99899477
  12.44038260  4.30914239  3.99899477
  11.19638264  6.46381352  3.99899477
   9.95238268  8.61848466  3.99899477
   1.24386148  0.71805767  2.00181652
  -0.00013847  2.87272880  2.00181652
  -1.24413843  5.02739993  2.00181652
  -2.48813839  7.18207107  2.00181652
   3.73186140  0.71805767  2.00181652
   2.48786144  2.87272880  2.00181652
   1.24386148  5.02739993  2.00181652
  -0.00013847  7.18207107  2.00181652
   6.21986132  0.71805767  2.00181652
   4.97586136  2.87272880  2.00181652
   3.73186140  5.02739993  2.00181652
   2.48786144  7.18207107  2.00181652
   8.70786123  0.71805767  2.00181652
   7.46386128  2.87272880  2.00181652
   6.21986132  5.02739993  2.00181652
   4.97586136  7.18207107  2.00181652
  11.19586115  0.71805767  2.00181652
   9.95186119  2.87272880  2.00181652
   8.70786123  5.02739993  2.00181652
   7.46386128  7.18207107  2.00181652
  13.68386107  0.71805767  2.00181652
  12.43986111  2.87272880  2.00181652
  11.19586115  5.02739993  2.00181652
   9.95186119  7.18207107  2.00181652
  16.17186098  0.71805767  2.00181652
  14.92786102  2.87272880  2.00181652
  13.68386107  5.02739993  2.00181652
  12.43986111  7.18207107  2.00181652
  -0.00001246  1.43645466  0.00000018
  -1.24401242  3.59112579  0.00000018
  -2.48801237  5.74579692  0.00000018
  -3.73201233  7.90046805  0.00000018
   2.48798746  1.43645466  0.00000018
   1.24398750  3.59112579  0.00000018
  -0.00001246  5.74579692  0.00000018
  -1.24401241  7.90046805  0.00000018
   4.97598738  1.43645466  0.00000018
   3.73198742  3.59112579  0.00000018
   2.48798746  5.74579692  0.00000018
   1.24398750  7.90046805  0.00000018
   7.46398729  1.43645466  0.00000018
   6.21998733  3.59112579  0.00000018
   4.97598738  5.74579692  0.00000018
   3.73198742  7.90046805  0.00000018
   9.95198721  1.43645466  0.00000018
   8.70798725  3.59112579  0.00000018
   7.46398729  5.74579692  0.00000018
   6.21998733  7.90046805  0.00000018
  12.43998712  1.43645466  0.00000018
  11.19598717  3.59112579  0.00000018
   9.95198721  5.74579692  0.00000018
   8.70798725  7.90046805  0.00000018
  14.92798704  1.43645466  0.00000018
  13.68398708  3.59112579  0.00000018
  12.43998712  5.74579692  0.00000018
  11.19598717  7.90046805  0.00000018
   3.14702692  1.90820315  6.08855645
   4.42231010  2.54609262  5.98306321
   4.58396788  4.00749209  5.97429304
   3.32359499  4.75322404  5.89986489
   2.03830923  4.10743173  5.96094474
   1.89323262  2.66376362  6.01487573
  -0.86935625  8.55574416  7.09642217
   5.59544222  4.60538260  6.96549320
   6.96153423  3.90889722  7.15144736
   9.11196926  3.71425800  5.93667023
   9.20654074  2.26572596  5.95548407
  10.25767675  4.55369524  6.14720066
  10.55245627  1.71115041  5.97699344
  11.58844015  4.00030477  6.03044719
  11.70408005  2.55535790  5.99346672
   7.61525332  4.32907875  8.47106635
  11.11007182  6.58784967  7.15334423
   5.27894026  1.94161260  6.28967432
   3.36303121  5.80431590  6.20897883
   1.17306674  4.68405580  6.30172783
   0.57001164  1.32443100  6.42623898
   4.58895861  0.50078950  7.91329917
  -1.25597395  7.59801927  7.46275423
  -0.13955910  8.35700542  6.28136858
   5.10767238  4.48321439  7.96078989
   6.83080498  2.81451626  7.13902218
   6.45428080  6.30564757  7.31950876
   8.41515892  1.69329200  6.44651084
  10.66912261  0.66603549  6.27980347
  12.42380178  4.56708210  6.44909584
  12.67200340  2.12588968  6.26759807
   6.94357712  4.07748160  9.30563249
   8.56140363  3.77371625  8.60564404
   8.59313995  5.89698892  7.88080932
  11.73554283  6.84248824  6.27266812
  10.66746658  7.50411397  7.56045729
  11.71201058  6.07260322  7.91892280
   0.80624667  2.21905312  6.76051638
   2.96565990  0.64709262  6.60401314
   7.84404643  4.32441465  6.07523015
   5.75063754  5.99957460  6.69853477
   7.84904096  5.74162825  8.51396151
   9.99379438  5.76818399  6.75779661
 


--------------------------------------------------------------------------------------------------------


 k-point  1 :   0.0000 0.0000 0.0000  plane waves:   68637
 k-point  2 :   0.3333-0.0000 0.0000  plane waves:   68670
 k-point  3 :   0.0000 0.3333 0.0000  plane waves:   68650
 k-point  4 :   0.3333 0.3333 0.0000  plane waves:   68645
 k-point  5 :  -0.3333 0.3333 0.0000  plane waves:   68661

 maximum and minimum number of plane-waves per node :     68670    68637

 maximum number of plane-waves:     68670
 maximum index in each direction: 
   IXMAX=   30   IYMAX=   17   IZMAX=   36
   IXMIN=  -30   IYMIN=  -17   IZMIN=  -36


 serial   3D FFT for wavefunctions
 parallel 3D FFT for charge:
    minimum data exchange during FFTs selected (reduces bandwidth)


 total amount of memory used by VASP MPI-rank0   279832. kBytes
=======================================================================

   base      :      30000. kBytes
   nonlr-proj:      29425. kBytes
   fftplans  :       5452. kBytes
   grid      :      53059. kBytes
   one-center:       3950. kBytes
   wavefun   :     157946. kBytes
 
     INWAV:  cpu time    0.0000: real time    0.0004
 Broyden mixing: mesh for mixing (old mesh)
   NGX = 61   NGY = 35   NGZ = 73
  (NGX  =180   NGY  =108   NGZ  =224)
  gives a total of 155855 points

 initial charge density was supplied:
 charge density of overlapping atoms calculated
 number of electron     964.0000000 magnetization     127.0000000
 keeping initial charge density in first step


--------------------------------------------------------------------------------------------------------


 Maximum index for non-local projection operator         1699
 Maximum index for augmentation-charges          348 (set IRDMAX)


--------------------------------------------------------------------------------------------------------


 First call to EWALD:  gamma=   0.121
 Maximum number of real-space cells 3x 4x 2
 Maximum number of reciprocal cells 3x 2x 4

    FEWALD:  cpu time    0.0046: real time    0.0046


--------------------------------------- Iteration      1(   1)  ---------------------------------------


    POTLOK:  cpu time    0.1972: real time    0.2225
    SETDIJ:  cpu time    0.0238: real time    0.0298
     EDDAV:  cpu time   45.3446: real time   45.4067
       DOS:  cpu time    0.0110: real time    0.0132
    --------------------------------------------
      LOOP:  cpu time   45.5766: real time   45.6723

 eigenvalue-minimisations  : 13440
 total energy-change (2. order) : 0.7588831E+04  (-0.3836680E+05)
 number of electron     964.0000000 magnetization     127.0000000
 augmentation part      964.0000000 magnetization     127.0000000

 DIPCOR: dipole corrections for dipol
 direction  3 min pos   149,
 dipolmoment           0.000000      0.000000     -0.000646 electrons x Angstroem
 Tr[quadrupol]    -33590.173855

 energy correction for charged system         0.000000 eV
 dipol+quadrupol energy correction           -0.000000 eV
 added-field ion interaction         -0.028293 eV  (added to PSCEN)


 Free energy of the ion-electron system (eV)
  ---------------------------------------------------
  alpha Z        PSCENC =      1467.67154745
  Ewald energy   TEWEN  =    336368.09559358
  -Hartree energ DENC   =   -428917.72765369
  -exchange      EXHF   =         0.00000000
  -V(xc)+E(xc)   XCENC  =      3097.89363300
  PAW double counting   =     84835.00388706   -90469.81730700
  entropy T*S    EENTRO =        -0.02078975
  eigenvalues    EBANDS =      5338.27494319
  atomic energy  EATOM  =     95869.45763542
  Solvation  Ediel_sol  =         0.00000000
  ---------------------------------------------------
  free energy    TOTEN  =      7588.83148925 eV

  energy without entropy =     7588.85227900  energy(sigma->0) =     7588.84188413


--------------------------------------------------------------------------------------------------------




--------------------------------------- Iteration      1(   2)  ---------------------------------------


     EDDAV:  cpu time   48.2875: real time   48.3358
       DOS:  cpu time    0.0042: real time    0.0042
    --------------------------------------------
      LOOP:  cpu time   48.2917: real time   48.3400

 eigenvalue-minimisations  : 13488
 total energy-change (2. order) :-0.7216288E+04  (-0.6701070E+04)
 number of electron     964.0000000 magnetization     127.0000000
 augmentation part      964.0000000 magnetization     127.0000000

 DIPCOR: dipole corrections for dipol
 direction  3 min pos   149,
 dipolmoment           0.000000      0.000000     -0.000646 electrons x Angstroem
 Tr[quadrupol]    -33590.173855

 energy correction for charged system         0.000000 eV
 dipol+quadrupol energy correction           -0.000000 eV
 added-field ion interaction         -0.028293 eV  (added to PSCEN)


 Free energy of the ion-electron system (eV)
  ---------------------------------------------------
  alpha Z        PSCENC =      1467.67154745
  Ewald energy   TEWEN  =    336368.09559358
  -Hartree energ DENC   =   -428917.72765369
  -exchange      EXHF   =         0.00000000
  -V(xc)+E(xc)   XCENC  =      3097.89363300
  PAW double counting   =     84835.00388706   -90469.81730700
  entropy T*S    EENTRO =        -0.04443260
  eigenvalues    EBANDS =     -1877.98912416
  atomic energy  EATOM  =     95869.45763542
  Solvation  Ediel_sol  =         0.00000000
  ---------------------------------------------------
  free energy    TOTEN  =       372.54377905 eV

  energy without entropy =      372.58821165  energy(sigma->0) =      372.56599535


--------------------------------------------------------------------------------------------------------




--------------------------------------- Iteration      1(   3)  ---------------------------------------


     EDDAV:  cpu time   57.6782: real time   57.7047
       DOS:  cpu time    0.0033: real time    0.0033
    --------------------------------------------
      LOOP:  cpu time   57.6816: real time   57.7081

 eigenvalue-minimisations  : 18144
 total energy-change (2. order) :-0.1042630E+04  (-0.9424410E+03)
 number of electron     964.0000000 magnetization     127.0000000
 augmentation part      964.0000000 magnetization     127.0000000

 DIPCOR: dipole corrections for dipol
 direction  3 min pos   149,
 dipolmoment           0.000000      0.000000     -0.000646 electrons x Angstroem
 Tr[quadrupol]    -33590.173855

 energy correction for charged system         0.000000 eV
 dipol+quadrupol energy correction           -0.000000 eV
 added-field ion interaction         -0.028293 eV  (added to PSCEN)


 Free energy of the ion-electron system (eV)
  ---------------------------------------------------
  alpha Z        PSCENC =      1467.67154745
  Ewald energy   TEWEN  =    336368.09559358
  -Hartree energ DENC   =   -428917.72765369
  -exchange      EXHF   =         0.00000000
  -V(xc)+E(xc)   XCENC  =      3097.89363300
  PAW double counting   =     84835.00388706   -90469.81730700
  entropy T*S    EENTRO =        -0.07257861
  eigenvalues    EBANDS =     -2920.59099715
  atomic energy  EATOM  =     95869.45763542
  Solvation  Ediel_sol  =         0.00000000
  ---------------------------------------------------
  free energy    TOTEN  =      -670.08623994 eV

  energy without entropy =     -670.01366133  energy(sigma->0) =     -670.04995064


--------------------------------------------------------------------------------------------------------




--------------------------------------- Iteration      1(   4)  ---------------------------------------


     EDDAV:  cpu time   56.1525: real time   56.1792
       DOS:  cpu time    0.0028: real time    0.0028
    --------------------------------------------
      LOOP:  cpu time   56.1553: real time   56.1820

 eigenvalue-minimisations  : 17088
 total energy-change (2. order) :-0.7647919E+02  (-0.7439901E+02)
 number of electron     964.0000000 magnetization     127.0000000
 augmentation part      964.0000000 magnetization     127.0000000

 DIPCOR: dipole corrections for dipol
 direction  3 min pos   149,
 dipolmoment           0.000000      0.000000     -0.000646 electrons x Angstroem
 Tr[quadrupol]    -33590.173855

 energy correction for charged system         0.000000 eV
 dipol+quadrupol energy correction           -0.000000 eV
 added-field ion interaction         -0.028293 eV  (added to PSCEN)


 Free energy of the ion-electron system (eV)
  ---------------------------------------------------
  alpha Z        PSCENC =      1467.67154745
  Ewald energy   TEWEN  =    336368.09559358
  -Hartree energ DENC   =   -428917.72765369
  -exchange      EXHF   =         0.00000000
  -V(xc)+E(xc)   XCENC  =      3097.89363300
  PAW double counting   =     84835.00388706   -90469.81730700
  entropy T*S    EENTRO =        -0.06587920
  eigenvalues    EBANDS =     -2997.07688786
  atomic energy  EATOM  =     95869.45763542
  Solvation  Ediel_sol  =         0.00000000
  ---------------------------------------------------
  free energy    TOTEN  =      -746.56543125 eV

  energy without entropy =     -746.49955205  energy(sigma->0) =     -746.53249165


--------------------------------------------------------------------------------------------------------




--------------------------------------- Iteration      1(   5)  ---------------------------------------


     EDDAV:  cpu time   50.6450: real time   50.6675
       DOS:  cpu time    0.0039: real time    0.0039
    --------------------------------------------
      LOOP:  cpu time   50.6489: real time   50.6714

 eigenvalue-minimisations  : 15456
 total energy-change (2. order) :-0.2056594E+01  (-0.2044808E+01)
 number of electron     964.0000000 magnetization     127.0000000
 augmentation part      964.0000000 magnetization     127.0000000

 DIPCOR: dipole corrections for dipol
 direction  3 min pos   149,
 dipolmoment           0.000000      0.000000     -0.000646 electrons x Angstroem
 Tr[quadrupol]    -33590.173855

 energy correction for charged system         0.000000 eV
 dipol+quadrupol energy correction           -0.000000 eV
 added-field ion interaction         -0.028293 eV  (added to PSCEN)


 Free energy of the ion-electron system (eV)
  ---------------------------------------------------
  alpha Z        PSCENC =      1467.67154745
  Ewald energy   TEWEN  =    336368.09559358
  -Hartree energ DENC   =   -428917.72765369
  -exchange      EXHF   =         0.00000000
  -V(xc)+E(xc)   XCENC  =      3097.89363300
  PAW double counting   =     84835.00388706   -90469.81730700
  entropy T*S    EENTRO =        -0.06505460
  eigenvalues    EBANDS =     -2999.13430669
  atomic energy  EATOM  =     95869.45763542
  Solvation  Ediel_sol  =         0.00000000
  ---------------------------------------------------
  free energy    TOTEN  =      -748.62202547 eV

  energy without entropy =     -748.55697088  energy(sigma->0) =     -748.58949817


--------------------------------------------------------------------------------------------------------




--------------------------------------- Iteration      1(   6)  ---------------------------------------


     EDDAV:  cpu time   59.2963: real time   59.4633
       DOS:  cpu time    0.0034: real time    0.0034
    --------------------------------------------
      LOOP:  cpu time   59.2996: real time   59.4666

 eigenvalue-minimisations  : 18624
 total energy-change (2. order) :-0.9033174E-01  (-0.9029229E-01)
 number of electron     964.0000000 magnetization     127.0000000
 augmentation part      964.0000000 magnetization     127.0000000

 DIPCOR: dipole corrections for dipol
 direction  3 min pos   149,
 dipolmoment           0.000000      0.000000     -0.000646 electrons x Angstroem
 Tr[quadrupol]    -33590.173855

 energy correction for charged system         0.000000 eV
 dipol+quadrupol energy correction           -0.000000 eV
 added-field ion interaction         -0.028293 eV  (added to PSCEN)


 Free energy of the ion-electron system (eV)
  ---------------------------------------------------
  alpha Z        PSCENC =      1467.67154745
  Ewald energy   TEWEN  =    336368.09559358
  -Hartree energ DENC   =   -428917.72765369
  -exchange      EXHF   =         0.00000000
  -V(xc)+E(xc)   XCENC  =      3097.89363300
  PAW double counting   =     84835.00388706   -90469.81730700
  entropy T*S    EENTRO =        -0.06502421
  eigenvalues    EBANDS =     -2999.22466881
  atomic energy  EATOM  =     95869.45763542
  Solvation  Ediel_sol  =         0.00000000
  ---------------------------------------------------
  free energy    TOTEN  =      -748.71235721 eV

  energy without entropy =     -748.64733299  energy(sigma->0) =     -748.67984510


--------------------------------------------------------------------------------------------------------




--------------------------------------- Iteration      1(   7)  ---------------------------------------


     EDDAV:  cpu time   57.0085: real time   57.1821
       DOS:  cpu time    0.0033: real time    0.0033
    CHARGE:  cpu time    1.6862: real time    1.8737
    MIXING:  cpu time    0.0042: real time    0.0050
    --------------------------------------------
      LOOP:  cpu time   58.7023: real time   59.0642

 eigenvalue-minimisations  : 17856
 total energy-change (2. order) :-0.5220660E-02  (-0.5220444E-02)
 number of electron     964.0001340 magnetization     120.4482069
 augmentation part      476.1690151 magnetization     105.6046607

 DIPCOR: dipole corrections for dipol
 direction  3 min pos   149,
 dipolmoment           0.000000      0.000000     -0.000646 electrons x Angstroem
 Tr[quadrupol]    -33590.173855

 energy correction for charged system         0.000000 eV
 dipol+quadrupol energy correction           -0.000000 eV
 added-field ion interaction         -0.028293 eV  (added to PSCEN)


 Broyden mixing:
  rms(total) = 0.10071E+02    rms(broyden)= 0.10070E+02
  rms(prec ) = 0.10585E+02
  weight for this iteration     100.00

 Free energy of the ion-electron system (eV)
  ---------------------------------------------------
  alpha Z        PSCENC =      1467.67154745
  Ewald energy   TEWEN  =    336368.09559358
  -Hartree energ DENC   =   -428917.72765369
  -exchange      EXHF   =         0.00000000
  -V(xc)+E(xc)   XCENC  =      3097.89363300
  PAW double counting   =     84835.00388706   -90469.81730700
  entropy T*S    EENTRO =        -0.06502398
  eigenvalues    EBANDS =     -2999.22988970
  atomic energy  EATOM  =     95869.45763542
  Solvation  Ediel_sol  =         0.00000000
  ---------------------------------------------------
  free energy    TOTEN  =      -748.71757787 eV

  energy without entropy =     -748.65255389  energy(sigma->0) =     -748.68506588


--------------------------------------------------------------------------------------------------------




--------------------------------------- Iteration      1(   8)  ---------------------------------------


    POTLOK:  cpu time    0.1716: real time    0.1717
    SETDIJ:  cpu time    0.0232: real time    0.0232
    EDDIAG:  cpu time    8.8729: real time    8.8861
  RMM-DIIS:  cpu time   22.6076: real time   22.6806
    ORTHCH:  cpu time    2.5793: real time    2.5817
       DOS:  cpu time    0.0014: real time    0.0014
    CHARGE:  cpu time    1.7957: real time    1.7965
    MIXING:  cpu time    0.0046: real time    0.0149
    --------------------------------------------
      LOOP:  cpu time   36.0563: real time   36.1562

 eigenvalue-minimisations  : 13487
 total energy-change (2. order) : 0.3393237E+02  (-0.1163642E+03)
 number of electron     964.0001760 magnetization     116.4683560
 augmentation part      571.9483431 magnetization     108.0310379

 DIPCOR: dipole corrections for dipol
 direction  3 min pos   145,
 dipolmoment           0.000000      0.000000      2.570979 electrons x Angstroem
 Tr[quadrupol]    -33592.493500

 energy correction for charged system         0.000000 eV
 dipol+quadrupol energy correction           -0.189910 eV
 added-field ion interaction         58.917578 eV  (added to PSCEN)


 Broyden mixing:
  rms(total) = 0.12595E+02    rms(broyden)= 0.12594E+02
  rms(prec ) = 0.13987E+02
  weight for this iteration     100.00

 eigenvalues of (default mixing * dielectric matrix)
  average eigenvalue GAMMA=   0.3912
  0.3912

 Free energy of the ion-electron system (eV)
  ---------------------------------------------------
  alpha Z        PSCENC =      1526.42750833
  Ewald energy   TEWEN  =    336368.09559358
  -Hartree energ DENC   =   -426973.40587471
  -exchange      EXHF   =         0.00000000
  -V(xc)+E(xc)   XCENC  =      3077.32819119
  PAW double counting   =     91044.68698054   -96281.57469948
  entropy T*S    EENTRO =        -0.05371134
  eigenvalues    EBANDS =     -5345.74682923
  atomic energy  EATOM  =     95869.45763542
  Solvation  Ediel_sol  =         0.00000000
  ---------------------------------------------------
  free energy    TOTEN  =      -714.78520570 eV

  energy without entropy =     -714.73149436  energy(sigma->0) =     -714.75835003


--------------------------------------------------------------------------------------------------------




--------------------------------------- Iteration      1(   9)  ---------------------------------------


    POTLOK:  cpu time    0.1726: real time    0.1728
    SETDIJ:  cpu time    0.0232: real time    0.0232
    EDDIAG:  cpu time    8.8665: real time    8.8721
  RMM-DIIS:  cpu time   22.2902: real time   22.6118
    ORTHCH:  cpu time    2.5647: real time    2.5660
       DOS:  cpu time    0.0013: real time    0.0013
    CHARGE:  cpu time    1.8098: real time    1.8106
    MIXING:  cpu time    0.0044: real time    0.0044
    --------------------------------------------
      LOOP:  cpu time   35.7325: real time   36.0621

 eigenvalue-minimisations  : 13440
 total energy-change (2. order) :-0.3773655E+02  (-0.2848799E+02)
 number of electron     964.0001113 magnetization     114.4154357
 augmentation part      517.4502059 magnetization      96.8176595

 DIPCOR: dipole corrections for dipol
 direction  3 min pos   147,
 dipolmoment           0.000000      0.000000     -3.936712 electrons x Angstroem
 Tr[quadrupol]    -33596.501803

 energy correction for charged system         0.000000 eV
 dipol+quadrupol energy correction           -0.445265 eV
 added-field ion interaction       -131.286536 eV  (added to PSCEN)


 Broyden mixing:
  rms(total) = 0.15495E+02    rms(broyden)= 0.15494E+02
  rms(prec ) = 0.19576E+02
  weight for this iteration     100.00

 eigenvalues of (default mixing * dielectric matrix)
  average eigenvalue GAMMA=   0.3172
  0.4718  0.1627

 Free energy of the ion-electron system (eV)
  ---------------------------------------------------
  alpha Z        PSCENC =      1335.96804012
  Ewald energy   TEWEN  =    336368.09559358
  -Hartree energ DENC   =   -428061.11820774
  -exchange      EXHF   =         0.00000000
  -V(xc)+E(xc)   XCENC  =      3094.23081970
  PAW double counting   =     94227.94044908   -99750.42494496
  entropy T*S    EENTRO =        -0.05908453
  eigenvalues    EBANDS =     -3836.61205927
  atomic energy  EATOM  =     95869.45763542
  Solvation  Ediel_sol  =         0.00000000
  ---------------------------------------------------
  free energy    TOTEN  =      -752.52175861 eV

  energy without entropy =     -752.46267407  energy(sigma->0) =     -752.49221634


--------------------------------------------------------------------------------------------------------




--------------------------------------- Iteration      1(  10)  ---------------------------------------


    POTLOK:  cpu time    0.1696: real time    0.1716
    SETDIJ:  cpu time    0.0232: real time    0.0233
    EDDIAG:  cpu time   13.5197: real time   13.5405
  RMM-DIIS:  cpu time   22.2133: real time   22.5516
    ORTHCH:  cpu time    2.5762: real time    2.5773
       DOS:  cpu time    0.0014: real time    0.0014
    CHARGE:  cpu time    1.7853: real time    1.7901
    MIXING:  cpu time    0.0047: real time    0.0047
    --------------------------------------------
      LOOP:  cpu time   40.2934: real time   40.6606

 eigenvalue-minimisations  : 13444
 total energy-change (2. order) : 0.6448562E+02  (-0.9730311E+01)
 number of electron     964.0001800 magnetization     112.2784916
 augmentation part      522.1827655 magnetization      98.0850458

 DIPCOR: dipole corrections for dipol
 direction  3 min pos   152,
 dipolmoment           0.000000      0.000000     -0.766747 electrons x Angstroem
 Tr[quadrupol]    -33608.911184

 energy correction for charged system         0.000000 eV
 dipol+quadrupol energy correction           -0.016891 eV
 added-field ion interaction        -45.568957 eV  (added to PSCEN)


 Broyden mixing:
  rms(total) = 0.13618E+02    rms(broyden)= 0.13617E+02
  rms(prec ) = 0.16875E+02
  weight for this iteration     100.00

 eigenvalues of (default mixing * dielectric matrix)
  average eigenvalue GAMMA=   0.2803
  0.4949  0.2607  0.0853

 Free energy of the ion-electron system (eV)
  ---------------------------------------------------
  alpha Z        PSCENC =      1422.11399249
  Ewald energy   TEWEN  =    336368.09559358
  -Hartree energ DENC   =   -428428.58485655
  -exchange      EXHF   =         0.00000000
  -V(xc)+E(xc)   XCENC  =      3093.71177104
  PAW double counting   =     95387.68890539  -100975.24970521
  entropy T*S    EENTRO =        -0.04465687
  eigenvalues    EBANDS =     -3425.22481707
  atomic energy  EATOM  =     95869.45763542
  Solvation  Ediel_sol  =         0.00000000
  ---------------------------------------------------
  free energy    TOTEN  =      -688.03613777 eV

  energy without entropy =     -687.99148091  energy(sigma->0) =     -688.01380934


--------------------------------------------------------------------------------------------------------




--------------------------------------- Iteration      1(  11)  ---------------------------------------


    POTLOK:  cpu time    0.1700: real time    0.1706
    SETDIJ:  cpu time    0.0232: real time    0.0232
    EDDIAG:  cpu time    8.9466: real time    8.9981
  RMM-DIIS:  cpu time   22.5813: real time   22.6133
    ORTHCH:  cpu time    2.5740: real time    2.5752
       DOS:  cpu time    0.0014: real time    0.0014
    CHARGE:  cpu time    1.8822: real time    1.8834
    MIXING:  cpu time    0.0049: real time    0.0049
    --------------------------------------------
      LOOP:  cpu time   36.1836: real time   36.2702

 eigenvalue-minimisations  : 13475
 total energy-change (2. order) : 0.1899733E+02  (-0.7638731E+01)
 number of electron     964.0001496 magnetization     108.0670140
 augmentation part      520.0731820 magnetization      89.5986031

 DIPCOR: dipole corrections for dipol
 direction  3 min pos   153,
 dipolmoment           0.000000      0.000000     -2.389659 electrons x Angstroem
 Tr[quadrupol]    -33606.062578

 energy correction for charged system         0.000000 eV
 dipol+quadrupol energy correction           -0.164068 eV
 added-field ion interaction       -154.486559 eV  (added to PSCEN)


 Broyden mixing:
  rms(total) = 0.10030E+02    rms(broyden)= 0.10029E+02
  rms(prec ) = 0.12612E+02
  weight for this iteration     100.00

 eigenvalues of (default mixing * dielectric matrix)
  average eigenvalue GAMMA=   0.3197
  0.6096  0.4754  0.1040  0.0897

 Free energy of the ion-electron system (eV)
  ---------------------------------------------------
  alpha Z        PSCENC =      1313.04921367
  Ewald energy   TEWEN  =    336368.09559358
  -Hartree energ DENC   =   -428520.07386563
  -exchange      EXHF   =         0.00000000
  -V(xc)+E(xc)   XCENC  =      3094.60051814
  PAW double counting   =     96297.14405121  -101919.87135148
  entropy T*S    EENTRO =        -0.06138608
  eigenvalues    EBANDS =     -3171.37921623
  atomic energy  EATOM  =     95869.45763542
  Solvation  Ediel_sol  =         0.00000000
  ---------------------------------------------------
  free energy    TOTEN  =      -669.03880739 eV

  energy without entropy =     -668.97742132  energy(sigma->0) =     -669.00811435


--------------------------------------------------------------------------------------------------------




--------------------------------------- Iteration      1(  12)  ---------------------------------------


    POTLOK:  cpu time    0.1701: real time    0.1715
    SETDIJ:  cpu time    0.0231: real time    0.0232
    EDDIAG:  cpu time    8.8767: real time    8.8829
  RMM-DIIS:  cpu time   22.3195: real time   22.6749
    ORTHCH:  cpu time    2.5604: real time    2.5642
       DOS:  cpu time    0.0015: real time    0.0015
    CHARGE:  cpu time    1.8005: real time    1.8013
    MIXING:  cpu time    0.0051: real time    0.0051
    --------------------------------------------
      LOOP:  cpu time   35.7568: real time   36.1245

 eigenvalue-minimisations  : 13440
 total energy-change (2. order) :-0.1904196E+02  (-0.7834779E+01)
 number of electron     964.0001581 magnetization     104.5921250
 augmentation part      521.9706339 magnetization      86.7016257

 DIPCOR: dipole corrections for dipol
 direction  3 min pos   154,
 dipolmoment           0.000000      0.000000     -1.509683 electrons x Angstroem
 Tr[quadrupol]    -33609.272203

 energy correction for charged system         0.000000 eV
 dipol+quadrupol energy correction           -0.065482 eV
 added-field ion interaction       -105.473105 eV  (added to PSCEN)


 Broyden mixing:
  rms(total) = 0.13328E+02    rms(broyden)= 0.13327E+02
  rms(prec ) = 0.15459E+02
  weight for this iteration     100.00

 eigenvalues of (default mixing * dielectric matrix)
  average eigenvalue GAMMA=   0.3298
  0.7785  0.5584  0.1246  0.1048  0.0826

 Free energy of the ion-electron system (eV)
  ---------------------------------------------------
  alpha Z        PSCENC =      1362.16125301
  Ewald energy   TEWEN  =    336368.09559358
  -Hartree energ DENC   =   -428541.14602017
  -exchange      EXHF   =         0.00000000
  -V(xc)+E(xc)   XCENC  =      3092.15650270
  PAW double counting   =     98090.59119813  -103759.82260614
  entropy T*S    EENTRO =        -0.04706839
  eigenvalues    EBANDS =     -3169.52725220
  atomic energy  EATOM  =     95869.45763542
  Solvation  Ediel_sol  =         0.00000000
  ---------------------------------------------------
  free energy    TOTEN  =      -688.08076407 eV

  energy without entropy =     -688.03369567  energy(sigma->0) =     -688.05722987


--------------------------------------------------------------------------------------------------------




--------------------------------------- Iteration      1(  13)  ---------------------------------------


    POTLOK:  cpu time    0.1703: real time    0.1708
    SETDIJ:  cpu time    0.0232: real time    0.0232
    EDDIAG:  cpu time    8.8564: real time    8.8617
  RMM-DIIS:  cpu time   22.4163: real time   22.7537
    ORTHCH:  cpu time    2.5622: real time    2.5631
       DOS:  cpu time    0.0014: real time    0.0014
    CHARGE:  cpu time    1.7963: real time    1.7973
    MIXING:  cpu time    0.0052: real time    0.0052
    --------------------------------------------
      LOOP:  cpu time   35.8313: real time   36.1765

 eigenvalue-minimisations  : 13487
 total energy-change (2. order) : 0.4996649E+02  (-0.8249597E+01)
 number of electron     964.0001579 magnetization     101.6850949
 augmentation part      528.4425778 magnetization      82.9282374

 DIPCOR: dipole corrections for dipol
 direction  3 min pos   155,
 dipolmoment           0.000000      0.000000     -0.926288 electrons x Angstroem
 Tr[quadrupol]    -33609.262163

 energy correction for charged system         0.000000 eV
 dipol+quadrupol energy correction           -0.024651 eV
 added-field ion interaction        -69.546480 eV  (added to PSCEN)


 Broyden mixing:
  rms(total) = 0.99439E+01    rms(broyden)= 0.99431E+01
  rms(prec ) = 0.11498E+02
  weight for this iteration     100.00

 eigenvalues of (default mixing * dielectric matrix)
  average eigenvalue GAMMA=   0.3300
  0.9638  0.5669  0.1555  0.1129  0.0970  0.0842

 Free energy of the ion-electron system (eV)
  ---------------------------------------------------
  alpha Z        PSCENC =      1398.12870869
  Ewald energy   TEWEN  =    336368.09559358
  -Hartree energ DENC   =   -428440.09374756
  -exchange      EXHF   =         0.00000000
  -V(xc)+E(xc)   XCENC  =      3095.25422200
  PAW double counting   =     99324.51200022  -105019.14059153
  entropy T*S    EENTRO =        -0.05755334
  eigenvalues    EBANDS =     -3234.27053870
  atomic energy  EATOM  =     95869.45763542
  Solvation  Ediel_sol  =         0.00000000
  ---------------------------------------------------
  free energy    TOTEN  =      -638.11427121 eV

  energy without entropy =     -638.05671788  energy(sigma->0) =     -638.08549455


--------------------------------------------------------------------------------------------------------




--------------------------------------- Iteration      1(  14)  ---------------------------------------


    POTLOK:  cpu time    0.1698: real time    0.1708
    SETDIJ:  cpu time    0.0234: real time    0.0234
    EDDIAG:  cpu time    8.8867: real time    8.8921
  RMM-DIIS:  cpu time   22.2697: real time   22.6465
    ORTHCH:  cpu time    2.5764: real time    2.5775
       DOS:  cpu time    0.0014: real time    0.0014
    CHARGE:  cpu time    1.8092: real time    1.8098
    MIXING:  cpu time    0.0055: real time    0.0055
    --------------------------------------------
      LOOP:  cpu time   35.7420: real time   36.1270

 eigenvalue-minimisations  : 13443
 total energy-change (2. order) : 0.3497023E+02  (-0.5433805E+01)
 number of electron     964.0001518 magnetization      98.8295449
 augmentation part      530.9984661 magnetization      78.9442096

 DIPCOR: dipole corrections for dipol
 direction  3 min pos   155,
 dipolmoment           0.000000      0.000000     -1.346682 electrons x Angstroem
 Tr[quadrupol]    -33608.812909

 energy correction for charged system         0.000000 eV
 dipol+quadrupol energy correction           -0.052105 eV
 added-field ion interaction       -101.109985 eV  (added to PSCEN)


 Broyden mixing:
  rms(total) = 0.64872E+01    rms(broyden)= 0.64866E+01
  rms(prec ) = 0.72956E+01
  weight for this iteration     100.00

 eigenvalues of (default mixing * dielectric matrix)
  average eigenvalue GAMMA=   0.3499
  1.1792  0.5895  0.2670  0.1271  0.1271  0.0797  0.0797

 Free energy of the ion-electron system (eV)
  ---------------------------------------------------
  alpha Z        PSCENC =      1366.53775015
  Ewald energy   TEWEN  =    336368.09559358
  -Hartree energ DENC   =   -428477.46899968
  -exchange      EXHF   =         0.00000000
  -V(xc)+E(xc)   XCENC  =      3095.42173311
  PAW double counting   =    100323.05676289  -106044.18598625
  entropy T*S    EENTRO =        -0.07287732
  eigenvalues    EBANDS =     -3103.98565492
  atomic energy  EATOM  =     95869.45763542
  Solvation  Ediel_sol  =         0.00000000
  ---------------------------------------------------
  free energy    TOTEN  =      -603.14404302 eV

  energy without entropy =     -603.07116570  energy(sigma->0) =     -603.10760436


--------------------------------------------------------------------------------------------------------




--------------------------------------- Iteration      1(  15)  ---------------------------------------


    POTLOK:  cpu time    0.1696: real time    0.1705
    SETDIJ:  cpu time    0.0234: real time    0.0234
    EDDIAG:  cpu time    8.8991: real time    8.9170
  RMM-DIIS:  cpu time   22.2401: real time   22.6135
    ORTHCH:  cpu time    2.5714: real time    2.5726
       DOS:  cpu time    0.0014: real time    0.0014
    CHARGE:  cpu time    1.8032: real time    1.8069
    MIXING:  cpu time    0.0058: real time    0.0058
    --------------------------------------------
      LOOP:  cpu time   35.7139: real time   36.1110

 eigenvalue-minimisations  : 13458
 total energy-change (2. order) :-0.1332010E+02  (-0.3540025E+01)
 number of electron     964.0001446 magnetization      96.6770013
 augmentation part      528.7840864 magnetization      78.5072821

 DIPCOR: dipole corrections for dipol
 direction  3 min pos   155,
 dipolmoment           0.000000      0.000000     -1.507723 electrons x Angstroem
 Tr[quadrupol]    -33609.204880

 energy correction for charged system         0.000000 eV
 dipol+quadrupol energy correction           -0.065312 eV
 added-field ion interaction       -113.201109 eV  (added to PSCEN)


 Broyden mixing:
  rms(total) = 0.84780E+01    rms(broyden)= 0.84776E+01
  rms(prec ) = 0.10441E+02
  weight for this iteration     100.00

 eigenvalues of (default mixing * dielectric matrix)
  average eigenvalue GAMMA=   0.3470
  1.2528  0.6548  0.3357  0.1391  0.1391  0.0875  0.0875  0.0796

 Free energy of the ion-electron system (eV)
  ---------------------------------------------------
  alpha Z        PSCENC =      1354.43341897
  Ewald energy   TEWEN  =    336368.09559358
  -Hartree energ DENC   =   -428549.03735318
  -exchange      EXHF   =         0.00000000
  -V(xc)+E(xc)   XCENC  =      3094.38450463
  PAW double counting   =    101176.13907930  -106921.94420956
  entropy T*S    EENTRO =        -0.06683565
  eigenvalues    EBANDS =     -3007.92597334
  atomic energy  EATOM  =     95869.45763542
  Solvation  Ediel_sol  =         0.00000000
  ---------------------------------------------------
  free energy    TOTEN  =      -616.46413984 eV

  energy without entropy =     -616.39730419  energy(sigma->0) =     -616.43072202


--------------------------------------------------------------------------------------------------------




--------------------------------------- Iteration      1(  16)  ---------------------------------------


    POTLOK:  cpu time    0.1726: real time    0.1742
    SETDIJ:  cpu time    0.0233: real time    0.0233
    EDDIAG:  cpu time    9.0073: real time    9.0141
[...]
 Tr[quadrupol]    -33560.922930

 energy correction for charged system         0.000000 eV
 dipol+quadrupol energy correction           -0.047613 eV
 added-field ion interaction        -69.853499 eV  (added to PSCEN)


  free energy =  -0.689457828650E+03  energy without entropy=  -0.689387068725E+03


--------------------------------------------------------------------------------------------------------




------------------------ aborting loop because EDIFF is reached ----------------------------------------


    CHARGE:  cpu time    1.8559: real time    1.8566
    FORLOC:  cpu time    0.0501: real time    0.0501
    FORNL :  cpu time    7.5226: real time    7.5255
    STRESS:  cpu time   22.4820: real time   22.4904
    FORCOR:  cpu time    0.1739: real time    0.1739
    FORHAR:  cpu time    0.0635: real time    0.0635
    MIXING:  cpu time    0.0048: real time    0.0048
    OFIELD:  cpu time    0.0001: real time    0.0001

  Number of pair interactions contributing to vdW energy:  674993
  Edisp (eV):   -9.58056
    FORVDW:  cpu time    0.0851: real time    0.0851

  FORCE on cell =-STRESS in cart. coord.  units (eV):
  Direction    XX          YY          ZZ          XY          YZ          ZX
  --------------------------------------------------------------------------------------
  Alpha Z  1467.69984  1467.69984  1467.69984
  Ewald  387779.23889386753.86459************   406.45796   361.42388    33.43116
  Hartree411787.50801410857.79802************   259.18130   331.79483    52.57284
  E(xc)   -5106.67001 -5106.70635 -5121.04042     0.52233    -0.00112    -0.20176
  Local  ************************814603.87557  -635.93342  -697.10727  -100.35791
  n-local  -955.01023  -946.28553 -1010.95311    -2.29319    -1.43121    -0.92523
  augment 14809.52219 14808.41523 14887.03030    -4.63960     0.18820     1.30300
  Kinetic  8524.90015  8503.21201  8718.75473   -27.17203     5.31663    14.10182
  Fock        0.00000     0.00000     0.00000     0.00000     0.00000     0.00000
  vdW       -11.44408   -11.39593    -8.87085    -0.03578    -0.05075    -0.08231
  -------------------------------------------------------------------------------------
  Total     -45.08187   -39.17972    -3.87412    -3.91243     0.13319    -0.15840
  in kB     -22.81172   -19.82519    -1.96033    -1.97972     0.06739    -0.08015
  external pressure =      -14.87 kB  Pullay stress =        0.00 kB



--------------------------------------------------------------------------------------------------------



  FREE ENERGIE OF THE ION-ELECTRON SYSTEM (eV)
  ---------------------------------------------------
  free  energy   TOTEN  =      -699.03838403 eV

  energy  without entropy=     -698.96762411  energy(sigma->0) =     -699.00300407
 
 d Force = 0.1194755E-04[-0.429E-05, 0.282E-04]  d Energy = 0.3034196E-06 0.116E-04
 d Force = 0.6659804E+01[ 0.666E+01, 0.666E+01]  d Ewald  = 0.6659803E+01 0.536E-06


--------------------------------------------------------------------------------------------------------


    POTLOK:  cpu time    0.1957: real time    0.1962


--------------------------------------------------------------------------------------------------------




--------------------------------------------------------------------------------------------------------


    WAVPRE:  cpu time    0.0493: real time    0.0506
    FEWALD:  cpu time    0.0032: real time    0.0032
    ORTHCH:  cpu time    5.0464: real time    5.0480
     LOOP+:  cpu time  227.8832: real time  227.9814


--------------------------------------- Iteration     50(   1)  ---------------------------------------


    POTLOK:  cpu time    0.1729: real time    0.1732
    SETDIJ:  cpu time    0.0232: real time    0.0232
     EDDAV:  cpu time   45.5692: real time   45.5858
       DOS:  cpu time    0.0070: real time    0.0070
    CHARGE:  cpu time    1.8482: real time    1.8489
    MIXING:  cpu time    0.0037: real time    0.0037
    --------------------------------------------
      LOOP:  cpu time   47.6242: real time   47.6418

 eigenvalue-minimisations  : 13680
 total energy-change (2. order) :-0.3675443E-03  (-0.4583998E-02)
 number of electron     964.0002130 magnetization      55.9871260
 augmentation part      524.7740699 magnetization      52.5534094

 DIPCOR: dipole corrections for dipol
 direction  3 min pos   151,
 dipolmoment           0.000000      0.000000     -1.286610 electrons x Angstroem
 Tr[quadrupol]    -33560.360445

 energy correction for charged system         0.000000 eV
 dipol+quadrupol energy correction           -0.047560 eV
 added-field ion interaction        -69.809775 eV  (added to PSCEN)


  free energy =  -0.689458190883E+03  energy without entropy=  -0.689387433037E+03


--------------------------------------------------------------------------------------------------------




--------------------------------------- Iteration     50(   2)  ---------------------------------------


    POTLOK:  cpu time    0.1703: real time    0.1710
    SETDIJ:  cpu time    0.0233: real time    0.0236
    EDDIAG:  cpu time    8.9954: real time    9.0024
  RMM-DIIS:  cpu time   22.6509: real time   22.6609
    ORTHCH:  cpu time    2.5693: real time    2.5706
       DOS:  cpu time    0.0014: real time    0.0014
    CHARGE:  cpu time    1.8452: real time    1.8461
    MIXING:  cpu time    0.0040: real time    0.0040
    --------------------------------------------
      LOOP:  cpu time   36.2599: real time   36.2801

 eigenvalue-minimisations  : 13451
 total energy-change (2. order) :-0.6079106E-02  (-0.3104783E-03)
 number of electron     964.0002128 magnetization      55.9872611
 augmentation part      524.7694212 magnetization      52.5497571

 DIPCOR: dipole corrections for dipol
 direction  3 min pos   151,
 dipolmoment           0.000000      0.000000     -1.294333 electrons x Angstroem
 Tr[quadrupol]    -33560.335709

 energy correction for charged system         0.000000 eV
 dipol+quadrupol energy correction           -0.048133 eV
 added-field ion interaction        -70.228794 eV  (added to PSCEN)


 eigenvalues of (default mixing * dielectric matrix)
  average eigenvalue GAMMA=   0.0633
  0.0633

  free energy =  -0.689464269989E+03  energy without entropy=  -0.689393330069E+03


--------------------------------------------------------------------------------------------------------




--------------------------------------- Iteration     50(   3)  ---------------------------------------


    POTLOK:  cpu time    0.1716: real time    0.1721
    SETDIJ:  cpu time    0.0235: real time    0.0235
    EDDIAG:  cpu time    8.9235: real time    8.9269
  RMM-DIIS:  cpu time   22.6837: real time   22.6924
    ORTHCH:  cpu time    2.5651: real time    2.5661
       DOS:  cpu time    0.0014: real time    0.0014
    CHARGE:  cpu time    1.8489: real time    1.8496
    MIXING:  cpu time    0.0042: real time    0.0042
    --------------------------------------------
      LOOP:  cpu time   36.2220: real time   36.2363

 eigenvalue-minimisations  : 13467
 total energy-change (2. order) : 0.6236385E-02  (-0.1559983E-03)
 number of electron     964.0002130 magnetization      55.9872865
 augmentation part      524.7764725 magnetization      52.5542533

 DIPCOR: dipole corrections for dipol
 direction  3 min pos   151,
 dipolmoment           0.000000      0.000000     -1.285727 electrons x Angstroem
 Tr[quadrupol]    -33560.363353

 energy correction for charged system         0.000000 eV
 dipol+quadrupol energy correction           -0.047495 eV
 added-field ion interaction        -69.761868 eV  (added to PSCEN)


 eigenvalues of (default mixing * dielectric matrix)
  average eigenvalue GAMMA=   0.0892
  0.1233  0.0552

  free energy =  -0.689458033604E+03  energy without entropy=  -0.689387277613E+03


--------------------------------------------------------------------------------------------------------




--------------------------------------- Iteration     50(   4)  ---------------------------------------


    POTLOK:  cpu time    0.1709: real time    0.1716
    SETDIJ:  cpu time    0.0232: real time    0.0232
    EDDIAG:  cpu time    8.9059: real time    8.9093
  RMM-DIIS:  cpu time   22.7062: real time   22.7148
    ORTHCH:  cpu time    4.4131: real time    4.4169
       DOS:  cpu time    0.0014: real time    0.0014
    CHARGE:  cpu time    2.0309: real time    2.0318
    MIXING:  cpu time    0.0119: real time    0.0119
    --------------------------------------------
      LOOP:  cpu time   38.2636: real time   38.2810

 eigenvalue-minimisations  : 13296
 total energy-change (2. order) :-0.2367669E-03  (-0.2680152E-04)
 number of electron     964.0002129 magnetization      55.9874428
 augmentation part      524.7749243 magnetization      52.5531287

 DIPCOR: dipole corrections for dipol
 direction  3 min pos   151,
 dipolmoment           0.000000      0.000000     -1.287843 electrons x Angstroem
 Tr[quadrupol]    -33560.356150

 energy correction for charged system         0.000000 eV
 dipol+quadrupol energy correction           -0.047651 eV
 added-field ion interaction        -69.876661 eV  (added to PSCEN)


 eigenvalues of (default mixing * dielectric matrix)
  average eigenvalue GAMMA=   0.1485
  0.3141  0.0778  0.0538

  free energy =  -0.689458270370E+03  energy without entropy=  -0.689387509921E+03


--------------------------------------------------------------------------------------------------------




--------------------------------------- Iteration     50(   5)  ---------------------------------------


    POTLOK:  cpu time    0.2629: real time    0.2642
    SETDIJ:  cpu time    0.0369: real time    0.0369
    EDDIAG:  cpu time    9.8905: real time    9.8942
  RMM-DIIS:  cpu time   21.8525: real time   21.8606
    ORTHCH:  cpu time    2.5627: real time    2.5637
       DOS:  cpu time    0.0014: real time    0.0014
    CHARGE:  cpu time    1.8457: real time    1.8463
    MIXING:  cpu time    0.0047: real time    0.0047
    --------------------------------------------
      LOOP:  cpu time   36.4573: real time   36.4722

 eigenvalue-minimisations  : 12930
 total energy-change (2. order) :-0.2932543E-04  (-0.1200789E-04)
 number of electron     964.0002130 magnetization      55.9876594
 augmentation part      524.7751982 magnetization      52.5544069

 DIPCOR: dipole corrections for dipol
 direction  3 min pos   151,
 dipolmoment           0.000000      0.000000     -1.286574 electrons x Angstroem
 Tr[quadrupol]    -33560.360373

 energy correction for charged system         0.000000 eV
 dipol+quadrupol energy correction           -0.047558 eV
 added-field ion interaction        -69.807820 eV  (added to PSCEN)


 eigenvalues of (default mixing * dielectric matrix)
  average eigenvalue GAMMA=   0.2053
  0.5731  0.1241  0.0530  0.0709

  free energy =  -0.689458299696E+03  energy without entropy=  -0.689387562277E+03


--------------------------------------------------------------------------------------------------------




--------------------------------------- Iteration     50(   6)  ---------------------------------------


    POTLOK:  cpu time    0.1702: real time    0.1710
    SETDIJ:  cpu time    0.0233: real time    0.0233
    EDDIAG:  cpu time    9.0443: real time    9.0477
  RMM-DIIS:  cpu time   20.4631: real time   20.4711
    ORTHCH:  cpu time    2.5392: real time    2.5401
       DOS:  cpu time    0.0014: real time    0.0014
    CHARGE:  cpu time    1.8988: real time    1.8997
    MIXING:  cpu time    0.0050: real time    0.0050
    --------------------------------------------
      LOOP:  cpu time   34.1452: real time   34.1592

 eigenvalue-minimisations  : 12133
 total energy-change (2. order) :-0.4011038E-04  (-0.5632545E-05)
 number of electron     964.0002129 magnetization      55.9878930
 augmentation part      524.7736908 magnetization      52.5536027

 DIPCOR: dipole corrections for dipol
 direction  3 min pos   151,
 dipolmoment           0.000000      0.000000     -1.287840 electrons x Angstroem
 Tr[quadrupol]    -33560.356239

 energy correction for charged system         0.000000 eV
 dipol+quadrupol energy correction           -0.047651 eV
 added-field ion interaction        -69.876531 eV  (added to PSCEN)


 eigenvalues of (default mixing * dielectric matrix)
  average eigenvalue GAMMA=   0.2323
  0.7995  0.1664  0.0529  0.0780  0.0647

  free energy =  -0.689458339806E+03  energy without entropy=  -0.689387515704E+03


--------------------------------------------------------------------------------------------------------




--------------------------------------- Iteration     50(   7)  ---------------------------------------


    POTLOK:  cpu time    0.1707: real time    0.1709
    SETDIJ:  cpu time    0.0234: real time    0.0234
    EDDIAG:  cpu time    8.9064: real time    8.9094
  RMM-DIIS:  cpu time   19.7644: real time   19.7724
    ORTHCH:  cpu time    2.6521: real time    2.6530
       DOS:  cpu time    0.0014: real time    0.0014
    CHARGE:  cpu time    1.8481: real time    1.8488
    MIXING:  cpu time    0.0053: real time    0.0053
    --------------------------------------------
      LOOP:  cpu time   33.3718: real time   33.3847

 eigenvalue-minimisations  : 11681
 total energy-change (2. order) : 0.8169669E-04  (-0.4345315E-05)
 number of electron     964.0002130 magnetization      55.9879818
 augmentation part      524.7742746 magnetization      52.5544100

 DIPCOR: dipole corrections for dipol
 direction  3 min pos   151,
 dipolmoment           0.000000      0.000000     -1.286584 electrons x Angstroem
 Tr[quadrupol]    -33560.360195

 energy correction for charged system         0.000000 eV
 dipol+quadrupol energy correction           -0.047558 eV
 added-field ion interaction        -69.808358 eV  (added to PSCEN)


 eigenvalues of (default mixing * dielectric matrix)
  average eigenvalue GAMMA=   0.2263
  0.8660  0.1950  0.1100  0.0758  0.0527  0.0585

  free energy =  -0.689458258110E+03  energy without entropy=  -0.689387523861E+03


--------------------------------------------------------------------------------------------------------




--------------------------------------- Iteration     50(   8)  ---------------------------------------


    POTLOK:  cpu time    0.1698: real time    0.1706
    SETDIJ:  cpu time    0.0232: real time    0.0232
    EDDIAG:  cpu time    8.8976: real time    8.9010
  RMM-DIIS:  cpu time   14.1929: real time   14.1984
    ORTHCH:  cpu time    2.6402: real time    2.6411
       DOS:  cpu time    0.0014: real time    0.0014
    --------------------------------------------
      LOOP:  cpu time   25.9250: real time   25.9358

 eigenvalue-minimisations  :  8199
 total energy-change (2. order) :-0.3185050E-05  (-0.1562636E-05)
 number of electron     964.0002130 magnetization      55.9879818
 augmentation part      524.7742746 magnetization      52.5544100

 DIPCOR: dipole corrections for dipol
 direction  3 min pos   151,
 dipolmoment           0.000000      0.000000     -1.287113 electrons x Angstroem
 Tr[quadrupol]    -33560.358433

 energy correction for charged system         0.000000 eV
 dipol+quadrupol energy correction           -0.047598 eV
 added-field ion interaction        -69.837091 eV  (added to PSCEN)


  free energy =  -0.689458261295E+03  energy without entropy=  -0.689387504249E+03


--------------------------------------------------------------------------------------------------------




------------------------ aborting loop because EDIFF is reached ----------------------------------------


    CHARGE:  cpu time    1.8492: real time    1.8500
    FORLOC:  cpu time    0.0502: real time    0.0502
    FORNL :  cpu time    7.5171: real time    7.5197
    STRESS:  cpu time   22.5095: real time   22.5172
    FORCOR:  cpu time    0.1742: real time    0.1742
    FORHAR:  cpu time    0.0624: real time    0.0624
    MIXING:  cpu time    0.0055: real time    0.0055
    OFIELD:  cpu time    0.0001: real time    0.0001

  Number of pair interactions contributing to vdW energy:  674995
  Edisp (eV):   -9.58030
    FORVDW:  cpu time    0.0851: real time    0.0851

  FORCE on cell =-STRESS in cart. coord.  units (eV):
  Direction    XX          YY          ZZ          XY          YZ          ZX
  --------------------------------------------------------------------------------------
  Alpha Z  1467.69984  1467.69984  1467.69984
  Ewald  387767.62258386742.34345************   406.87815   360.77111    32.89869
  Hartree411776.64360410847.16846************   259.29795   331.50499    52.33645
  E(xc)   -5106.66265 -5106.69899 -5121.03285     0.52194    -0.00182    -0.20298
  Local  ************************814581.25911  -636.46712  -696.19817   -99.63343
  n-local  -955.00468  -946.27098 -1010.96839    -2.29709    -1.42556    -0.92316
  augment 14809.52463 14808.42164 14887.03318    -4.64242     0.18848     1.30852
  Kinetic  8524.84556  8503.13507  8718.73205   -27.16469     5.34708    14.14674
  Fock        0.00000     0.00000     0.00000     0.00000     0.00000     0.00000
  vdW       -11.44310   -11.39565    -8.87019    -0.03579    -0.05057    -0.08217
  -------------------------------------------------------------------------------------
  Total     -45.12319   -39.20114    -3.92123    -3.90907     0.13552    -0.15132
  in kB     -22.83263   -19.83603    -1.98417    -1.97801     0.06858    -0.07657
  external pressure =      -14.88 kB  Pullay stress =        0.00 kB



--------------------------------------------------------------------------------------------------------



  FREE ENERGIE OF THE ION-ELECTRON SYSTEM (eV)
  ---------------------------------------------------
  free  energy   TOTEN  =      -699.03856217 eV

  energy  without entropy=     -698.96780512  energy(sigma->0) =     -699.00318364
 
 d Force = 0.1973532E-03[ 0.145E-03, 0.250E-03]  d Energy = 0.1781363E-03 0.192E-04
 d Force = 0.1160821E+02[ 0.116E+02, 0.116E+02]  d Ewald  = 0.1160821E+02-0.255E-07


--------------------------------------------------------------------------------------------------------


    POTLOK:  cpu time    0.1946: real time    0.1949


--------------------------------------------------------------------------------------------------------


 Conjugate gradient step on ions:
 trial-energy change:   -0.000178  1 .order   -0.000197   -0.000250   -0.000145
  (g-gl).g = 0.147E-03      g.g   = 0.168E-03  gl.gl    = 0.253E-03
 g(Force)  = 0.168E-03   g(Stress)= 0.000E+00 ortho     =-0.904E-05
 gamma     =   0.58333
 trial     =   1.53199
 opt step  =   3.64534  (harmonic =   3.64534) maximal distance =0.00310942
 next E    =  -699.038681   (d E  =  -0.00030)


--------------------------------------------------------------------------------------------------------


  
 reached required accuracy - stopping structural energy minimisation
     LOOP+:  cpu time  320.7728: real time  320.9087
    4ORBIT:  cpu time    0.0000: real time    0.0000

 total amount of memory used by VASP MPI-rank0   279832. kBytes
=======================================================================

   base      :      30000. kBytes
   nonlr-proj:      29425. kBytes
   fftplans  :       5452. kBytes
   grid      :      53059. kBytes
   one-center:       3950. kBytes
   wavefun   :     157946. kBytes
 
  
  
 General timing and accounting informations for this job:
 ========================================================
  
                  Total CPU time used (sec):    27016.154
                            User time (sec):    26927.933
                          System time (sec):       88.221
                         Elapsed time (sec):    27062.188
  
                   Maximum memory used (kb):      609296.
                   Average memory used (kb):           0.
  
                          Minor page faults:      9241658
                          Major page faults:            0
                 Voluntary context switches:        12109
