 vasp.5.4.4.18Apr17-6-g9f103f2a35 (build May 11 2017 09:47:33) complex          
  
 executed on            tekla2IFC date 2022.05.24  18:48:33
 running on   12 total cores
 distrk:  each k-point on   12 cores,    1 groups
 distr:  one band on NCORES_PER_BAND=   1 cores,   12 groups


--------------------------------------------------------------------------------------------------------


 INCAR:
 POTCAR:    PAW_PBE O 08Apr2002                   
 POTCAR:    PAW_PBE C 08Apr2002                   
 POTCAR:    PAW_PBE N 08Apr2002                   
 POTCAR:    PAW_PBE H 15Jun2001                   

 ----------------------------------------------------------------------------- 
|                                                                             |
|           W    W    AA    RRRRR   N    N  II  N    N   GGGG   !!!           |
|           W    W   A  A   R    R  NN   N  II  NN   N  G    G  !!!           |
|           W    W  A    A  R    R  N N  N  II  N N  N  G       !!!           |
|           W WW W  AAAAAA  RRRRR   N  N N  II  N  N N  G  GGG   !            |
|           WW  WW  A    A  R   R   N   NN  II  N   NN  G    G                |
|           W    W  A    A  R    R  N    N  II  N    N   GGGG   !!!           |
|                                                                             |
|      For optimal performance we recommend to set                            |
|        NCORE= 4 - approx SQRT( number of cores)                             |
|      NCORE specifies how many cores store one orbital (NPAR=cpu/NCORE).     |
|      This setting can  greatly improve the performance of VASP for DFT.     |
|      The default,   NCORE=1            might be grossly inefficient         |
|      on modern multi-core architectures or massively parallel machines.     |
|      Do your own testing !!!!                                               |
|      Unfortunately you need to use the default for GW and RPA calculations. |
|      (for HF NCORE is supported but not extensively tested yet)             |
|                                                                             |
 ----------------------------------------------------------------------------- 

 POTCAR:    PAW_PBE O 08Apr2002                   
  local pseudopotential read in
  partial core-charges read in
  partial kinetic energy density read in
  kinetic energy density of atom read in
  atomic valenz-charges read in
  non local Contribution for L=           0  read in
    real space projection operators read in
  non local Contribution for L=           0  read in
    real space projection operators read in
  non local Contribution for L=           1  read in
    real space projection operators read in
  non local Contribution for L=           1  read in
    real space projection operators read in
    PAW grid and wavefunctions read in
 
   number of l-projection  operators is LMAX  =           4
   number of lm-projection operators is LMMAX =           8
 
 POTCAR:    PAW_PBE C 08Apr2002                   
  local pseudopotential read in
  partial core-charges read in
  partial kinetic energy density read in
  atomic valenz-charges read in
  non local Contribution for L=           0  read in
    real space projection operators read in
  non local Contribution for L=           0  read in
    real space projection operators read in
  non local Contribution for L=           1  read in
    real space projection operators read in
  non local Contribution for L=           1  read in
    real space projection operators read in
    PAW grid and wavefunctions read in
 
   number of l-projection  operators is LMAX  =           4
   number of lm-projection operators is LMMAX =           8
 
 POTCAR:    PAW_PBE N 08Apr2002                   
  local pseudopotential read in
  partial core-charges read in
  partial kinetic energy density read in
  atomic valenz-charges read in
  non local Contribution for L=           0  read in
    real space projection operators read in
  non local Contribution for L=           0  read in
    real space projection operators read in
  non local Contribution for L=           1  read in
    real space projection operators read in
  non local Contribution for L=           1  read in
    real space projection operators read in
    PAW grid and wavefunctions read in
 
   number of l-projection  operators is LMAX  =           4
   number of lm-projection operators is LMMAX =           8
 
 POTCAR:    PAW_PBE H 15Jun2001                   
  local pseudopotential read in
  atomic valenz-charges read in
  non local Contribution for L=           0  read in
    real space projection operators read in
  non local Contribution for L=           0  read in
    real space projection operators read in
  non local Contribution for L=           1  read in
    real space projection operators read in
    PAW grid and wavefunctions read in
 
   number of l-projection  operators is LMAX  =           3
   number of lm-projection operators is LMMAX =           5
 
 Optimization of the real space projectors (new method)

 maximal supplied QI-value         = 24.76
 optimisation between [QCUT,QGAM] = [ 10.64, 21.54] = [ 31.73,129.89] Ry 
 Optimized for a Real-space Cutoff    1.23 Angstroem

   l    n(q)    QCUT    max X(q) W(low)/X(q) W(high)/X(q)  e(spline) 
   0      8    10.645    20.381    0.38E-03    0.60E-03    0.15E-06
   0      8    10.645    15.268    0.40E-03    0.65E-03    0.17E-06
   1      7    10.645     5.964    0.30E-03    0.63E-03    0.18E-06
   1      7    10.645     5.382    0.24E-03    0.53E-03    0.16E-06
 Optimization of the real space projectors (new method)

 maximal supplied QI-value         = 25.13
 optimisation between [QCUT,QGAM] = [ 10.81, 21.61] = [ 32.71,130.83] Ry 
 Optimized for a Real-space Cutoff    1.23 Angstroem

   l    n(q)    QCUT    max X(q) W(low)/X(q) W(high)/X(q)  e(spline) 
   0      8    10.807   115.676    0.36E-03    0.72E-03    0.24E-06
   0      8    10.807    87.132    0.35E-03    0.71E-03    0.24E-06
   1      7    10.807     4.429    0.19E-03    0.39E-03    0.11E-06
   1      7    10.807     2.733    0.14E-03    0.28E-03    0.13E-06
 Optimization of the real space projectors (new method)

 maximal supplied QI-value         = 25.13
 optimisation between [QCUT,QGAM] = [ 10.81, 21.61] = [ 32.71,130.83] Ry 
 Optimized for a Real-space Cutoff    1.23 Angstroem

   l    n(q)    QCUT    max X(q) W(low)/X(q) W(high)/X(q)  e(spline) 
   0      8    10.807    79.467    0.34E-03    0.68E-03    0.21E-06
   0      8    10.807    66.151    0.34E-03    0.67E-03    0.21E-06
   1      7    10.807    14.030    0.45E-03    0.13E-02    0.11E-05
   1      7    10.807     9.831    0.48E-03    0.13E-02    0.11E-05
 Optimization of the real space projectors (new method)

 maximal supplied QI-value         = 34.20
 optimisation between [QCUT,QGAM] = [ 10.60, 21.55] = [ 31.48,130.03] Ry 
 Optimized for a Real-space Cutoff    1.23 Angstroem

   l    n(q)    QCUT    max X(q) W(low)/X(q) W(high)/X(q)  e(spline) 
   0      8    10.603    19.460    0.37E-03    0.59E-03    0.23E-06
   0      8    10.603    12.209    0.35E-03    0.56E-03    0.22E-06
   1      7    10.603     4.655    0.70E-04    0.28E-03    0.29E-06
  PAW_PBE O 08Apr2002                   :
 energy of atom  1       EATOM= -432.3788
 kinetic energy error for atom=    0.0389 (will be added to EATOM!!)
  PAW_PBE C 08Apr2002                   :
 energy of atom  2       EATOM= -147.1560
 kinetic energy error for atom=    0.0116 (will be added to EATOM!!)
  PAW_PBE N 08Apr2002                   :
 energy of atom  3       EATOM= -264.5486
 kinetic energy error for atom=    0.0253 (will be added to EATOM!!)
  PAW_PBE H 15Jun2001                   :
 energy of atom  4       EATOM=  -12.4884
 kinetic energy error for atom=    0.0045 (will be added to EATOM!!)
 
 
 POSCAR: O  C  N  H                              
  positions in direct lattice
  velocities in cartesian coordinates
 exchange correlation table for  LEXCH =        8
   RHO(1)=    0.500       N(1)  =     2000
   RHO(2)=  100.500       N(2)  =     4000
 


--------------------------------------------------------------------------------------------------------


 ion  position               nearest neighbor table
   1  0.535  0.605  0.485-  10 1.22
   2  0.648  0.588  0.492-  10 1.38  11 1.44
   3  0.360  0.329  0.483-  21 1.10  20 1.10  22 1.10   4 1.50
   4  0.418  0.375  0.484-   5 1.40   9 1.42   3 1.50
   5  0.484  0.355  0.485-  14 1.09   6 1.39   4 1.40
   6  0.538  0.397  0.487-  15 1.09   5 1.39   7 1.41
   7  0.526  0.463  0.488-   8 1.40   6 1.41  13 1.41
   8  0.460  0.485  0.486-  16 1.09   7 1.40   9 1.40
   9  0.406  0.442  0.484-  12 1.39   8 1.40   4 1.42
  10  0.583  0.568  0.489-   1 1.22  13 1.37   2 1.38
  11  0.657  0.656  0.490-  23 1.10  25 1.10  24 1.10   2 1.44
  12  0.341  0.465  0.486-  17 1.01  18 1.01   9 1.39
  13  0.581  0.503  0.490-  19 1.01  10 1.37   7 1.41
  14  0.494  0.303  0.485-   5 1.09
  15  0.589  0.379  0.489-   6 1.09
  16  0.451  0.536  0.486-   8 1.09
  17  0.305  0.437  0.468-  12 1.01
  18  0.336  0.512  0.475-  12 1.01
  19  0.627  0.482  0.493-  13 1.01
  20  0.325  0.338  0.521-   3 1.10
  21  0.378  0.280  0.487-   3 1.10
  22  0.331  0.332  0.441-   3 1.10
  23  0.711  0.664  0.494-  11 1.10
  24  0.638  0.676  0.448-  11 1.10
  25  0.631  0.679  0.529-  11 1.10
 
  LATTYP: Found a simple orthorhombic cell.
 ALAT       =    20.0000000000
 B/A-ratio  =     1.0500000000
 C/A-ratio  =     1.1000000000
  
  Lattice vectors:
  
 A1 = (  20.0000000000,   0.0000000000,   0.0000000000)
 A2 = (   0.0000000000,  21.0000000000,   0.0000000000)
 A3 = (   0.0000000000,   0.0000000000,  22.0000000000)


Analysis of symmetry for initial positions (statically):
=====================================================================
 Subroutine PRICEL returns:
 Original cell was already a primitive cell.
 

 Routine SETGRP: Setting up the symmetry group for a 
 simple orthorhombic supercell.


 Subroutine GETGRP returns: Found  1 space group operations
 (whereof  1 operations were pure point group operations)
 out of a pool of  8 trial point group operations.


The static configuration has the point symmetry C_1 .


Analysis of symmetry for dynamics (positions and initial velocities):
=====================================================================
 Subroutine PRICEL returns:
 Original cell was already a primitive cell.
 

 Routine SETGRP: Setting up the symmetry group for a 
 simple orthorhombic supercell.


 Subroutine GETGRP returns: Found  1 space group operations
 (whereof  1 operations were pure point group operations)
 out of a pool of  8 trial point group operations.


The dynamic configuration has the point symmetry C_1 .


Analysis of constrained symmetry for selective dynamics:
=====================================================================
 Subroutine PRICEL returns:
 Original cell was already a primitive cell.
 

 Routine SETGRP: Setting up the symmetry group for a 
 simple orthorhombic supercell.


 Subroutine GETGRP returns: Found  1 space group operations
 (whereof  1 operations were pure point group operations)
 out of a pool of  8 trial point group operations.


The constrained configuration has the point symmetry C_1 .


 Subroutine INISYM returns: Found  1 space group operations
 (whereof  1 operations are pure point group operations),
 and found     1 'primitive' translations

 
 
 KPOINTS: K-POINTS                                

Automatic generation of k-mesh.
Space group operators:
 irot       det(A)        alpha          n_x          n_y          n_z        tau_x        tau_y        tau_z
    1     1.000000     0.000001     1.000000     0.000000     0.000000     0.000000     0.000000     0.000000
 
 Subroutine IBZKPT returns following result:
 ===========================================
 
 Found      1 irreducible k-points:
 
 Following reciprocal coordinates:
            Coordinates               Weight
  0.000000  0.000000  0.000000      1.000000
 
 Following cartesian coordinates:
            Coordinates               Weight
  0.000000  0.000000  0.000000      1.000000
 


--------------------------------------------------------------------------------------------------------




 Dimension of arrays:
   k-points           NKPTS =      1   k-points in BZ     NKDIM =      1   number of bands    NBANDS=     48
   number of dos      NEDOS =    301   number of ions     NIONS =     25
   non local maximal  LDIM  =      4   non local SUM 2l+1 LMDIM =      8
   total plane-waves  NPLWV = ******
   max r-space proj   IRMAX =   1265   max aug-charges    IRDMAX=   2237
   dimension x,y,z NGX =   108 NGY =  112 NGZ =  120
   dimension x,y,z NGXF=   216 NGYF=  224 NGZF=  240
   support grid    NGXF=   216 NGYF=  224 NGZF=  240
   ions per type =               2   9   2  12
   NGX,Y,Z   is equivalent  to a cutoff of   8.98,  8.87,  9.07 a.u.
   NGXF,Y,Z  is equivalent  to a cutoff of  17.95, 17.73, 18.14 a.u.

 SYSTEM =  ag-1211-a                               
 POSCAR =  O  C  N  H                              

 Startparameter for this run:
   NWRITE =      0    write-flag & timer
   PREC   = normal    normal or accurate (medium, high low for compatibility)
   ISTART =      0    job   : 0-new  1-cont  2-samecut
   ICHARG =      2    charge: 1-file 2-atom 10-const
   ISPIN  =      1    spin polarized calculation?
   LNONCOLLINEAR =      F non collinear calculations
   LSORBIT =      F    spin-orbit coupling
   INIWAV =      1    electr: 0-lowe 1-rand  2-diag
   LASPH  =      F    aspherical Exc in radial PAW
   METAGGA=      F    non-selfconsistent MetaGGA calc.

 Electronic Relaxation 1
   ENCUT  =  450.0 eV  33.07 Ry    5.75 a.u.  34.59 36.32 38.05*2*pi/ulx,y,z
   ENINI  =  450.0     initial cutoff
   ENAUG  =  644.9 eV  augmentation charge cutoff
   NELM   =     50;   NELMIN=  5; NELMDL= -7     # of ELM steps 
   EDIFF  = 0.1E-04   stopping-criterion for ELM
   LREAL  =      T    real-space projection
   NLSPLINE    = F    spline interpolate recip. space projectors
   LCOMPAT=      F    compatible to vasp.4.4
   GGA_COMPAT  = T    GGA compatible to vasp.4.4-vasp.4.6
   LMAXPAW     = -100 max onsite density
   LMAXMIX     =    2 max onsite mixed and CHGCAR
   VOSKOWN=      0    Vosko Wilk Nusair interpolation
   ROPT   =   -0.00050  -0.00050  -0.00050  -0.00050
 Ionic relaxation
   EDIFFG = -.2E-01   stopping-criterion for IOM
   NSW    =    300    number of steps for IOM
   NBLOCK =      1;   KBLOCK =    300    inner block; outer block 
   IBRION =      2    ionic relax: 0-MD 1-quasi-New 2-CG
   NFREE  =      2    steps in history (QN), initial steepest desc. (CG)
   ISIF   =      2    stress and relaxation
   IWAVPR =     11    prediction:  0-non 1-charg 2-wave 3-comb
   ISYM   =      2    0-nonsym 1-usesym 2-fastsym
   LCORR  =      T    Harris-Foulkes like correction to forces

   POTIM  = 0.1500    time-step for ionic-motion
   TEIN   =    0.0    initial temperature
   TEBEG  =    0.0;   TEEND  =   0.0 temperature during run
   SMASS  =  -3.00    Nose mass-parameter (am)
   estimated Nose-frequenzy (Omega)   =  0.10E-29 period in steps =****** mass=  -0.914E-26a.u.
   SCALEE = 1.0000    scale energy and forces
   NPACO  =    256;   APACO  = 16.0  distance and # of slots for P.C.
   PSTRESS=    0.0 pullay stress

  Mass of Ions in am
   POMASS =  16.00 12.01 14.00  1.00
  Ionic Valenz
   ZVAL   =   6.00  4.00  5.00  1.00
  Atomic Wigner-Seitz radii
   RWIGS  =  -1.00 -1.00 -1.00 -1.00
  virtual crystal weights 
   VCA    =   1.00  1.00  1.00  1.00
   NELECT =      70.0000    total number of electrons
   NUPDOWN=      -1.0000    fix difference up-down

 DOS related values:
   EMIN   =  10.00;   EMAX   =-10.00  energy-range for DOS
   EFERMI =   0.00
   ISMEAR =     0;   SIGMA  =   0.03  broadening in eV -4-tet -1-fermi 0-gaus

 Electronic relaxation 2 (details)
   IALGO  =     68    algorithm
   LDIAG  =      T    sub-space diagonalisation (order eigenvalues)
   LSUBROT=      F    optimize rotation matrix (better conditioning)
   TURBO    =      0    0=normal 1=particle mesh
   IRESTART =      0    0=no restart 2=restart with 2 vectors
   NREBOOT  =      0    no. of reboots
   NMIN     =      0    reboot dimension
   EREF     =   0.00    reference energy to select bands
   IMIX   =      4    mixing-type and parameters
     AMIX     =   0.40;   BMIX     =  1.00
     AMIX_MAG =   1.60;   BMIX_MAG =  1.00
     AMIN     =   0.10
     WC   =   100.;   INIMIX=   1;  MIXPRE=   1;  MAXMIX= -45

 Intra band minimization:
   WEIMIN = 0.0010     energy-eigenvalue tresh-hold
   EBREAK =  0.52E-07  absolut break condition
   DEPER  =   0.30     relativ break condition  

   TIME   =   0.40     timestep for ELM

  volume/ion in A,a.u.               =     369.60      2494.18
  Fermi-wavevector in a.u.,A,eV,Ry     =   0.321527  0.607597  1.406561  0.103379
  Thomas-Fermi vector in A             =   1.209100
 
 Write flags
   LWAVE        =      F    write WAVECAR
   LDOWNSAMPLE  =      F    k-point downsampling of WAVECAR
   LCHARG       =      F    write CHGCAR
   LVTOT        =      F    write LOCPOT, total local potential
   LVHAR        =      F    write LOCPOT, Hartree potential only
   LELF         =      F    write electronic localiz. function (ELF)
   LORBIT       =      0    0 simple, 1 ext, 2 COOP (PROOUT), +10 PAW based schemes


 Dipole corrections
   LMONO  =      F    monopole corrections only (constant potential shift)
   LDIPOL =      F    correct potential (dipole corrections)
   IDIPOL =      0    1-x, 2-y, 3-z, 4-all directions 
   EPSILON=  1.0000000 bulk dielectric constant

 Exchange correlation treatment:
   GGA     =    PE    GGA type
   LEXCH   =     8    internal setting for exchange type
   VOSKOWN=      0    Vosko Wilk Nusair interpolation
   LHFCALC =     F    Hartree Fock is set to
   LHFONE  =     F    Hartree Fock one center treatment
   AEXX    =    0.0000 exact exchange contribution

 Linear response parameters
   LEPSILON=     F    determine dielectric tensor
   LRPA    =     F    only Hartree local field effects (RPA)
   LNABLA  =     F    use nabla operator in PAW spheres
   LVEL    =     F    velocity operator in full k-point grid
   LINTERFAST=   F  fast interpolation
   KINTER  =     0    interpolate to denser k-point grid
   CSHIFT  =0.1000    complex shift for real part using Kramers Kronig
   OMEGAMAX=  -1.0    maximum frequency
   DEG_THRESHOLD= 0.2000000E-02 threshold for treating states as degnerate
   RTIME   =   -0.100 relaxation time in fs
  (WPLASMAI=    0.000 imaginary part of plasma frequency in eV, 0.658/RTIME)
   DFIELD  = 0.0000000 0.0000000 0.0000000 field for delta impulse in time
 
 Orbital magnetization related:
   ORBITALMAG=     F  switch on orbital magnetization
   LCHIMAG   =     F  perturbation theory with respect to B field
   DQ        =  0.001000  dq finite difference perturbation B field
   LLRAUG    =     F  two centre corrections for induced B field



--------------------------------------------------------------------------------------------------------


 conjugate gradient relaxation of ions
   using selective dynamics as specified on POSCAR
 charge density and potential will be updated during run
 non-spin polarized calculation
 RMM-DIIS sequential band-by-band and
  variant of blocked Davidson during initial phase
 perform sub-space diagonalisation
    before iterative eigenvector-optimisation
 modified Broyden-mixing scheme, WC =      100.0
 initial mixing is a Kerker type mixing with AMIX =  0.4000 and BMIX =      1.0000
 Hartree-type preconditioning will be used
 using additional bands           13
 real space projection scheme for non local part
 use partial core corrections
 calculate Harris-corrections to forces 
   (improved forces if not selfconsistent)
 use gradient corrections 
 use of overlap-Matrix (Vanderbilt PP)
 Gauss-broadening in eV      SIGMA  =   0.03


--------------------------------------------------------------------------------------------------------


  energy-cutoff  :      450.00
  volume of cell :     9240.00
      direct lattice vectors                 reciprocal lattice vectors
    20.000000000  0.000000000  0.000000000     0.050000000  0.000000000  0.000000000
     0.000000000 21.000000000  0.000000000     0.000000000  0.047619048  0.000000000
     0.000000000  0.000000000 22.000000000     0.000000000  0.000000000  0.045454545

  length of vectors
    20.000000000 21.000000000 22.000000000     0.050000000  0.047619048  0.045454545


 
 k-points in units of 2pi/SCALE and weight: K-POINTS                                
   0.00000000  0.00000000  0.00000000       1.000
 
 k-points in reciprocal lattice and weights: K-POINTS                                
   0.00000000  0.00000000  0.00000000       1.000
 
 position of ions in fractional coordinates (direct lattice) 
   0.53490267  0.60475972  0.48473816
   0.64820598  0.58798362  0.49180544
   0.36049896  0.32930273  0.48311603
   0.41788219  0.37549378  0.48410483
   0.48423133  0.35460719  0.48547982
   0.53804775  0.39667063  0.48741389
   0.52567217  0.46252810  0.48788332
   0.45992244  0.48500458  0.48605045
   0.40618429  0.44197092  0.48432294
   0.58265332  0.56844594  0.48850710
   0.65688568  0.65603605  0.49038403
   0.34100972  0.46537509  0.48574558
   0.58142878  0.50331969  0.49014873
   0.49406995  0.30343517  0.48524807
   0.58926667  0.37871253  0.48863208
   0.45071375  0.53608207  0.48628057
   0.30491638  0.43723596  0.46774651
   0.33558839  0.51197959  0.47473144
   0.62689756  0.48209016  0.49294297
   0.32543487  0.33800356  0.52088349
   0.37837821  0.28005667  0.48698790
   0.33131097  0.33247045  0.44058795
   0.71087506  0.66376858  0.49413178
   0.63786849  0.67594252  0.44756266
   0.63063443  0.67871353  0.52852439
 
 position of ions in cartesian coordinates  (Angst):
  10.69805344 12.69995411 10.66423962
  12.96411970 12.34765603 10.81971959
   7.20997920  6.91535739 10.62855267
   8.35764389  7.88536944 10.65030626
   9.68462668  7.44675092 10.68055613
  10.76095498  8.33008325 10.72310568
  10.51344333  9.71309010 10.73343297
   9.19844889 10.18509614 10.69310998
   8.12368573  9.28138938 10.65510458
  11.65306650 11.93736478 10.74715630
  13.13771353 13.77675704 10.78844874
   6.82019433  9.77287698 10.68640268
  11.62857551 10.56971344 10.78327208
   9.88139894  6.37213861 10.67545751
  11.78533336  7.95296319 10.74990581
   9.01427490 11.25772341 10.69817251
   6.09832766  9.18195519 10.29042329
   6.71176782 10.75157131 10.44409166
  12.53795112 10.12389344 10.84474536
   6.50869744  7.09807475 11.45943677
   7.56756413  5.88119003 10.71373374
   6.62621944  6.98187943  9.69293485
  14.21750120 13.93914012 10.87089906
  12.75736980 14.19479289  9.84637861
  12.61268860 14.25298422 11.62753662
 


--------------------------------------------------------------------------------------------------------


 k-point  1 :   0.0000 0.0000 0.0000  plane waves:  200221

 maximum and minimum number of plane-waves per node :    200221   200221

 maximum number of plane-waves:    200221
 maximum index in each direction: 
   IXMAX=   34   IYMAX=   36   IZMAX=   38
   IXMIN=  -34   IYMIN=  -36   IZMIN=  -38


 serial   3D FFT for wavefunctions
 parallel 3D FFT for charge:
    minimum data exchange during FFTs selected (reduces bandwidth)


 total amount of memory used by VASP MPI-rank0   212117. kBytes
=======================================================================

   base      :      30000. kBytes
   nonlr-proj:       2228. kBytes
   fftplans  :      38602. kBytes
   grid      :     128386. kBytes
   one-center:         76. kBytes
   wavefun   :      12825. kBytes
 
     INWAV:  cpu time    0.0000: real time    0.0001
 Broyden mixing: mesh for mixing (old mesh)
   NGX = 69   NGY = 73   NGZ = 77
  (NGX  =216   NGY  =224   NGZ  =240)
  gives a total of 387849 points

 initial charge density was supplied:
 charge density of overlapping atoms calculated
 number of electron      70.0000000 magnetization 
 keeping initial charge density in first step


--------------------------------------------------------------------------------------------------------


 Maximum index for non-local projection operator         1195
 Maximum index for augmentation-charges          175 (set IRDMAX)


--------------------------------------------------------------------------------------------------------


 First call to EWALD:  gamma=   0.084
 Maximum number of real-space cells 3x 3x 3
 Maximum number of reciprocal cells 3x 3x 3

    FEWALD:  cpu time    0.0030: real time    0.0027


--------------------------------------- Iteration      1(   1)  ---------------------------------------


    POTLOK:  cpu time    1.6987: real time    1.7204
    SETDIJ:  cpu time    0.0050: real time    0.0059
     EDDAV:  cpu time    4.7343: real time    4.7852
       DOS:  cpu time    0.0000: real time    0.0003
    --------------------------------------------
      LOOP:  cpu time    6.4380: real time    6.5118

 eigenvalue-minimisations  :   120
 total energy-change (2. order) : 0.6588808E+03  (-0.1403688E+04)
 number of electron      70.0000000 magnetization 
 augmentation part       70.0000000 magnetization 

 Free energy of the ion-electron system (eV)
  ---------------------------------------------------
  alpha Z        PSCENC =         2.29909595
  Ewald energy   TEWEN  =      6378.70908032
  -Hartree energ DENC   =     -8420.90742094
  -exchange      EXHF   =         0.00000000
  -V(xc)+E(xc)   XCENC  =       241.14592722
  PAW double counting   =      2105.27116366    -2116.48165886
  entropy T*S    EENTRO =        -0.00283691
  eigenvalues    EBANDS =      -398.98508777
  atomic energy  EATOM  =      2867.83248741
  Solvation  Ediel_sol  =         0.00000000
  ---------------------------------------------------
  free energy    TOTEN  =       658.88075008 eV

  energy without entropy =      658.88358699  energy(sigma->0) =      658.88216854


--------------------------------------------------------------------------------------------------------




--------------------------------------- Iteration      1(   2)  ---------------------------------------


     EDDAV:  cpu time    5.8281: real time    5.8946
       DOS:  cpu time    0.0000: real time    0.0002
    --------------------------------------------
      LOOP:  cpu time    5.8281: real time    5.8948

 eigenvalue-minimisations  :   156
 total energy-change (2. order) :-0.4043069E+03  (-0.3792663E+03)
 number of electron      70.0000000 magnetization 
 augmentation part       70.0000000 magnetization 

 Free energy of the ion-electron system (eV)
  ---------------------------------------------------
  alpha Z        PSCENC =         2.29909595
  Ewald energy   TEWEN  =      6378.70908032
  -Hartree energ DENC   =     -8420.90742094
  -exchange      EXHF   =         0.00000000
  -V(xc)+E(xc)   XCENC  =       241.14592722
  PAW double counting   =      2105.27116366    -2116.48165886
  entropy T*S    EENTRO =        -0.00000000
  eigenvalues    EBANDS =      -803.29479772
  atomic energy  EATOM  =      2867.83248741
  Solvation  Ediel_sol  =         0.00000000
  ---------------------------------------------------
  free energy    TOTEN  =       254.57387704 eV

  energy without entropy =      254.57387704  energy(sigma->0) =      254.57387704


--------------------------------------------------------------------------------------------------------




--------------------------------------- Iteration      1(   3)  ---------------------------------------


     EDDAV:  cpu time    5.0932: real time    5.1480
       DOS:  cpu time    0.0010: real time    0.0002
    --------------------------------------------
      LOOP:  cpu time    5.0942: real time    5.1482

 eigenvalue-minimisations  :   132
 total energy-change (2. order) :-0.3405124E+03  (-0.3244439E+03)
 number of electron      70.0000000 magnetization 
 augmentation part       70.0000000 magnetization 

 Free energy of the ion-electron system (eV)
  ---------------------------------------------------
  alpha Z        PSCENC =         2.29909595
  Ewald energy   TEWEN  =      6378.70908032
  -Hartree energ DENC   =     -8420.90742094
  -exchange      EXHF   =         0.00000000
  -V(xc)+E(xc)   XCENC  =       241.14592722
  PAW double counting   =      2105.27116366    -2116.48165886
  entropy T*S    EENTRO =        -0.00000000
  eigenvalues    EBANDS =     -1143.80722966
  atomic energy  EATOM  =      2867.83248741
  Solvation  Ediel_sol  =         0.00000000
  ---------------------------------------------------
  free energy    TOTEN  =       -85.93855490 eV

  energy without entropy =      -85.93855490  energy(sigma->0) =      -85.93855490


--------------------------------------------------------------------------------------------------------




--------------------------------------- Iteration      1(   4)  ---------------------------------------


     EDDAV:  cpu time    4.7253: real time    4.7802
       DOS:  cpu time    0.0000: real time    0.0002
    --------------------------------------------
      LOOP:  cpu time    4.7253: real time    4.7804

 eigenvalue-minimisations  :   120
 total energy-change (2. order) :-0.8223427E+02  (-0.8180739E+02)
 number of electron      70.0000000 magnetization 
 augmentation part       70.0000000 magnetization 

 Free energy of the ion-electron system (eV)
  ---------------------------------------------------
  alpha Z        PSCENC =         2.29909595
  Ewald energy   TEWEN  =      6378.70908032
  -Hartree energ DENC   =     -8420.90742094
  -exchange      EXHF   =         0.00000000
  -V(xc)+E(xc)   XCENC  =       241.14592722
  PAW double counting   =      2105.27116366    -2116.48165886
  entropy T*S    EENTRO =        -0.00000000
  eigenvalues    EBANDS =     -1226.04149912
  atomic energy  EATOM  =      2867.83248741
  Solvation  Ediel_sol  =         0.00000000
  ---------------------------------------------------
  free energy    TOTEN  =      -168.17282435 eV

  energy without entropy =     -168.17282435  energy(sigma->0) =     -168.17282435


--------------------------------------------------------------------------------------------------------




--------------------------------------- Iteration      1(   5)  ---------------------------------------


     EDDAV:  cpu time    4.3763: real time    4.3860
       DOS:  cpu time    0.0000: real time    0.0002
    --------------------------------------------
      LOOP:  cpu time    4.3763: real time    4.3862

 eigenvalue-minimisations  :   108
 total energy-change (2. order) :-0.3128610E+01  (-0.3106337E+01)
 number of electron      70.0000000 magnetization 
 augmentation part       70.0000000 magnetization 

 Free energy of the ion-electron system (eV)
  ---------------------------------------------------
  alpha Z        PSCENC =         2.29909595
  Ewald energy   TEWEN  =      6378.70908032
  -Hartree energ DENC   =     -8420.90742094
  -exchange      EXHF   =         0.00000000
  -V(xc)+E(xc)   XCENC  =       241.14592722
  PAW double counting   =      2105.27116366    -2116.48165886
  entropy T*S    EENTRO =        -0.00000000
  eigenvalues    EBANDS =     -1229.17010951
  atomic energy  EATOM  =      2867.83248741
  Solvation  Ediel_sol  =         0.00000000
  ---------------------------------------------------
  free energy    TOTEN  =      -171.30143475 eV

  energy without entropy =     -171.30143475  energy(sigma->0) =     -171.30143475


--------------------------------------------------------------------------------------------------------




--------------------------------------- Iteration      1(   6)  ---------------------------------------


     EDDAV:  cpu time    5.1282: real time    5.1413
       DOS:  cpu time    0.0000: real time    0.0002
    --------------------------------------------
      LOOP:  cpu time    5.1282: real time    5.1415

 eigenvalue-minimisations  :   132
 total energy-change (2. order) :-0.7954819E-01  (-0.7937929E-01)
 number of electron      70.0000000 magnetization 
 augmentation part       70.0000000 magnetization 

 Free energy of the ion-electron system (eV)
  ---------------------------------------------------
  alpha Z        PSCENC =         2.29909595
  Ewald energy   TEWEN  =      6378.70908032
  -Hartree energ DENC   =     -8420.90742094
  -exchange      EXHF   =         0.00000000
  -V(xc)+E(xc)   XCENC  =       241.14592722
  PAW double counting   =      2105.27116366    -2116.48165886
  entropy T*S    EENTRO =        -0.00000000
  eigenvalues    EBANDS =     -1229.24965771
  atomic energy  EATOM  =      2867.83248741
  Solvation  Ediel_sol  =         0.00000000
  ---------------------------------------------------
  free energy    TOTEN  =      -171.38098295 eV

  energy without entropy =     -171.38098295  energy(sigma->0) =     -171.38098295


--------------------------------------------------------------------------------------------------------




--------------------------------------- Iteration      1(   7)  ---------------------------------------


     EDDAV:  cpu time    5.0822: real time    5.1213
       DOS:  cpu time    0.0010: real time    0.0002
    CHARGE:  cpu time    0.4859: real time    0.4969
    MIXING:  cpu time    0.0390: real time    0.0392
    --------------------------------------------
      LOOP:  cpu time    5.6081: real time    5.6577

 eigenvalue-minimisations  :   132
 total energy-change (2. order) :-0.1202726E-02  (-0.1201909E-02)
 number of electron      70.0000041 magnetization 
 augmentation part        3.3157379 magnetization 

 Broyden mixing:
  rms(total) = 0.21317E+01    rms(broyden)= 0.21302E+01
  rms(prec ) = 0.22878E+01
  weight for this iteration     100.00

 Free energy of the ion-electron system (eV)
  ---------------------------------------------------
  alpha Z        PSCENC =         2.29909595
  Ewald energy   TEWEN  =      6378.70908032
  -Hartree energ DENC   =     -8420.90742094
  -exchange      EXHF   =         0.00000000
  -V(xc)+E(xc)   XCENC  =       241.14592722
  PAW double counting   =      2105.27116366    -2116.48165886
  entropy T*S    EENTRO =        -0.00000000
  eigenvalues    EBANDS =     -1229.25086043
  atomic energy  EATOM  =      2867.83248741
  Solvation  Ediel_sol  =         0.00000000
  ---------------------------------------------------
  free energy    TOTEN  =      -171.38218567 eV

  energy without entropy =     -171.38218567  energy(sigma->0) =     -171.38218567


--------------------------------------------------------------------------------------------------------




--------------------------------------- Iteration      1(   8)  ---------------------------------------


    POTLOK:  cpu time    1.5678: real time    1.5789
    SETDIJ:  cpu time    0.0060: real time    0.0058
    EDDIAG:  cpu time    0.8059: real time    0.8180
  RMM-DIIS:  cpu time    2.9556: real time    2.9711
    ORTHCH:  cpu time    0.1380: real time    0.1385
       DOS:  cpu time    0.0000: real time    0.0003
    CHARGE:  cpu time    0.4819: real time    0.4829
    MIXING:  cpu time    0.0420: real time    0.0425
    --------------------------------------------
      LOOP:  cpu time    5.9981: real time    6.0379

 eigenvalue-minimisations  :    96
 total energy-change (2. order) : 0.1223368E+02  (-0.2541484E+01)
 number of electron      70.0000035 magnetization 
 augmentation part        3.0272783 magnetization 

 Broyden mixing:
  rms(total) = 0.11117E+01    rms(broyden)= 0.11115E+01
  rms(prec ) = 0.11757E+01
  weight for this iteration     100.00

 eigenvalues of (default mixing * dielectric matrix)
  average eigenvalue GAMMA=   1.3807
  1.3807

 Free energy of the ion-electron system (eV)
  ---------------------------------------------------
  alpha Z        PSCENC =         2.29909595
  Ewald energy   TEWEN  =      6378.70908032
  -Hartree energ DENC   =     -8558.04761872
  -exchange      EXHF   =         0.00000000
  -V(xc)+E(xc)   XCENC  =       247.92676405
  PAW double counting   =      3383.82508036    -3396.68684762
  entropy T*S    EENTRO =        -0.00000000
  eigenvalues    EBANDS =     -1085.00654896
  atomic energy  EATOM  =      2867.83248741
  Solvation  Ediel_sol  =         0.00000000
  ---------------------------------------------------
  free energy    TOTEN  =      -159.14850721 eV

  energy without entropy =     -159.14850721  energy(sigma->0) =     -159.14850721


--------------------------------------------------------------------------------------------------------




--------------------------------------- Iteration      1(   9)  ---------------------------------------


    POTLOK:  cpu time    1.5838: real time    1.5868
    SETDIJ:  cpu time    0.0060: real time    0.0061
    EDDIAG:  cpu time    0.8159: real time    0.8174
  RMM-DIIS:  cpu time    2.9446: real time    2.9521
    ORTHCH:  cpu time    0.1380: real time    0.1382
       DOS:  cpu time    0.0010: real time    0.0004
    CHARGE:  cpu time    0.4839: real time    0.4852
    MIXING:  cpu time    0.0450: real time    0.0455
    --------------------------------------------
      LOOP:  cpu time    6.0171: real time    6.0316

 eigenvalue-minimisations  :    96
 total energy-change (2. order) : 0.2536264E+01  (-0.7736913E+00)
 number of electron      70.0000036 magnetization 
 augmentation part        2.9370517 magnetization 

 Broyden mixing:
  rms(total) = 0.53821E+00    rms(broyden)= 0.53810E+00
  rms(prec ) = 0.56110E+00
  weight for this iteration     100.00

 eigenvalues of (default mixing * dielectric matrix)
  average eigenvalue GAMMA=   1.6033
  1.1724  2.0343

 Free energy of the ion-electron system (eV)
  ---------------------------------------------------
  alpha Z        PSCENC =         2.29909595
  Ewald energy   TEWEN  =      6378.70908032
  -Hartree energ DENC   =     -8649.03377129
  -exchange      EXHF   =         0.00000000
  -V(xc)+E(xc)   XCENC  =       252.22085914
  PAW double counting   =      4787.43579155    -4800.94660406
  entropy T*S    EENTRO =        -0.00000000
  eigenvalues    EBANDS =      -995.12918174
  atomic energy  EATOM  =      2867.83248741
  Solvation  Ediel_sol  =         0.00000000
  ---------------------------------------------------
  free energy    TOTEN  =      -156.61224272 eV

  energy without entropy =     -156.61224272  energy(sigma->0) =     -156.61224272


--------------------------------------------------------------------------------------------------------




--------------------------------------- Iteration      1(  10)  ---------------------------------------


    POTLOK:  cpu time    1.5898: real time    1.5925
    SETDIJ:  cpu time    0.0060: real time    0.0066
    EDDIAG:  cpu time    0.8139: real time    0.8156
  RMM-DIIS:  cpu time    2.9535: real time    2.9592
    ORTHCH:  cpu time    0.1380: real time    0.1384
       DOS:  cpu time    0.0000: real time    0.0006
    CHARGE:  cpu time    0.4889: real time    0.4898
    MIXING:  cpu time    0.0480: real time    0.0479
    --------------------------------------------
      LOOP:  cpu time    6.0381: real time    6.0506

 eigenvalue-minimisations  :    96
 total energy-change (2. order) : 0.4482119E+00  (-0.1358320E+00)
 number of electron      70.0000036 magnetization 
 augmentation part        2.9077838 magnetization 

 Broyden mixing:
  rms(total) = 0.17322E+00    rms(broyden)= 0.17317E+00
  rms(prec ) = 0.18762E+00
  weight for this iteration     100.00

 eigenvalues of (default mixing * dielectric matrix)
  average eigenvalue GAMMA=   1.5752
  2.2838  0.9422  1.4998

 Free energy of the ion-electron system (eV)
  ---------------------------------------------------
  alpha Z        PSCENC =         2.29909595
  Ewald energy   TEWEN  =      6378.70908032
  -Hartree energ DENC   =     -8694.41195264
  -exchange      EXHF   =         0.00000000
  -V(xc)+E(xc)   XCENC  =       254.36516442
  PAW double counting   =      5802.64100669    -5816.22869909
  entropy T*S    EENTRO =        -0.00000000
  eigenvalues    EBANDS =      -951.37021385
  atomic energy  EATOM  =      2867.83248741
  Solvation  Ediel_sol  =         0.00000000
  ---------------------------------------------------
  free energy    TOTEN  =      -156.16403079 eV

  energy without entropy =     -156.16403079  energy(sigma->0) =     -156.16403079


--------------------------------------------------------------------------------------------------------




--------------------------------------- Iteration      1(  11)  ---------------------------------------


    POTLOK:  cpu time    1.5948: real time    1.5992
    SETDIJ:  cpu time    0.0060: real time    0.0064
    EDDIAG:  cpu time    0.8159: real time    0.8175
  RMM-DIIS:  cpu time    3.2325: real time    3.2398
    ORTHCH:  cpu time    0.1380: real time    0.1383
       DOS:  cpu time    0.0010: real time    0.0003
    CHARGE:  cpu time    0.4789: real time    0.4807
    MIXING:  cpu time    0.0510: real time    0.0511
    --------------------------------------------
      LOOP:  cpu time    6.3190: real time    6.3332

 eigenvalue-minimisations  :    99
 total energy-change (2. order) : 0.7357430E-01  (-0.1511668E-01)
 number of electron      70.0000036 magnetization 
 augmentation part        2.9028542 magnetization 

 Broyden mixing:
  rms(total) = 0.55141E-01    rms(broyden)= 0.55120E-01
  rms(prec ) = 0.71613E-01
  weight for this iteration     100.00

 eigenvalues of (default mixing * dielectric matrix)
  average eigenvalue GAMMA=   1.5776
  2.0938  2.0938  0.9358  1.1870

 Free energy of the ion-electron system (eV)
  ---------------------------------------------------
  alpha Z        PSCENC =         2.29909595
  Ewald energy   TEWEN  =      6378.70908032
  -Hartree energ DENC   =     -8707.38005859
  -exchange      EXHF   =         0.00000000
  -V(xc)+E(xc)   XCENC  =       254.79111257
  PAW double counting   =      6073.43502106    -6086.92250669
  entropy T*S    EENTRO =        -0.00000000
  eigenvalues    EBANDS =      -938.85468852
  atomic energy  EATOM  =      2867.83248741
  Solvation  Ediel_sol  =         0.00000000
  ---------------------------------------------------
  free energy    TOTEN  =      -156.09045649 eV

  energy without entropy =     -156.09045649  energy(sigma->0) =     -156.09045649


--------------------------------------------------------------------------------------------------------




--------------------------------------- Iteration      1(  12)  ---------------------------------------


    POTLOK:  cpu time    1.6018: real time    1.6050
    SETDIJ:  cpu time    0.0110: real time    0.0114
    EDDIAG:  cpu time    0.8159: real time    0.8178
  RMM-DIIS:  cpu time    2.9566: real time    2.9619
    ORTHCH:  cpu time    0.1380: real time    0.1389
       DOS:  cpu time    0.0010: real time    0.0005
    CHARGE:  cpu time    0.4819: real time    0.4831
    MIXING:  cpu time    0.0550: real time    0.0548
    --------------------------------------------
      LOOP:  cpu time    6.0601: real time    6.0734

 eigenvalue-minimisations  :    96
 total energy-change (2. order) : 0.1504651E-01  (-0.2407200E-02)
 number of electron      70.0000036 magnetization 
 augmentation part        2.9017992 magnetization 

 Broyden mixing:
  rms(total) = 0.24519E-01    rms(broyden)= 0.24510E-01
  rms(prec ) = 0.41729E-01
  weight for this iteration     100.00

 eigenvalues of (default mixing * dielectric matrix)
  average eigenvalue GAMMA=   1.6472
  2.2742  2.2742  0.9307  1.2357  1.5212

 Free energy of the ion-electron system (eV)
  ---------------------------------------------------
  alpha Z        PSCENC =         2.29909595
  Ewald energy   TEWEN  =      6378.70908032
  -Hartree energ DENC   =     -8714.47914565
  -exchange      EXHF   =         0.00000000
  -V(xc)+E(xc)   XCENC  =       254.85024942
  PAW double counting   =      6076.42986062    -6089.86264311
  entropy T*S    EENTRO =        -0.00000000
  eigenvalues    EBANDS =      -931.85439494
  atomic energy  EATOM  =      2867.83248741
  Solvation  Ediel_sol  =         0.00000000
  ---------------------------------------------------
  free energy    TOTEN  =      -156.07540999 eV

  energy without entropy =     -156.07540999  energy(sigma->0) =     -156.07540999


--------------------------------------------------------------------------------------------------------




--------------------------------------- Iteration      1(  13)  ---------------------------------------


    POTLOK:  cpu time    1.6108: real time    1.6142
    SETDIJ:  cpu time    0.0070: real time    0.0072
    EDDIAG:  cpu time    0.8149: real time    0.8175
  RMM-DIIS:  cpu time    3.0765: real time    3.0831
    ORTHCH:  cpu time    0.1470: real time    0.1472
       DOS:  cpu time    0.0010: real time    0.0002
    CHARGE:  cpu time    0.4769: real time    0.4787
    MIXING:  cpu time    0.0590: real time    0.0584
    --------------------------------------------
      LOOP:  cpu time    6.1931: real time    6.2064

 eigenvalue-minimisations  :    97
 total energy-change (2. order) : 0.6376151E-02  (-0.1180531E-02)
 number of electron      70.0000036 magnetization 
 augmentation part        2.9001077 magnetization 

 Broyden mixing:
  rms(total) = 0.13118E-01    rms(broyden)= 0.13116E-01
  rms(prec ) = 0.25663E-01
  weight for this iteration     100.00

 eigenvalues of (default mixing * dielectric matrix)
  average eigenvalue GAMMA=   1.7542
  2.7658  2.7658  0.9568  1.5164  1.3706  1.1496

 Free energy of the ion-electron system (eV)
  ---------------------------------------------------
  alpha Z        PSCENC =         2.29909595
  Ewald energy   TEWEN  =      6378.70908032
  -Hartree energ DENC   =     -8725.01980098
  -exchange      EXHF   =         0.00000000
  -V(xc)+E(xc)   XCENC  =       254.99930698
  PAW double counting   =      6073.27971459    -6086.70454386
  entropy T*S    EENTRO =        -0.00000000
  eigenvalues    EBANDS =      -921.46437424
  atomic energy  EATOM  =      2867.83248741
  Solvation  Ediel_sol  =         0.00000000
  ---------------------------------------------------
  free energy    TOTEN  =      -156.06903384 eV

  energy without entropy =     -156.06903384  energy(sigma->0) =     -156.06903384


--------------------------------------------------------------------------------------------------------




--------------------------------------- Iteration      1(  14)  ---------------------------------------


    POTLOK:  cpu time    1.6208: real time    1.6247
    SETDIJ:  cpu time    0.0060: real time    0.0060
    EDDIAG:  cpu time    0.8169: real time    0.8184
  RMM-DIIS:  cpu time    2.9536: real time    2.9596
    ORTHCH:  cpu time    0.1420: real time    0.1425
       DOS:  cpu time    0.0010: real time    0.0010
    CHARGE:  cpu time    0.4769: real time    0.4785
    MIXING:  cpu time    0.0630: real time    0.0626
    --------------------------------------------
      LOOP:  cpu time    6.0801: real time    6.0934

 eigenvalue-minimisations  :    96
 total energy-change (2. order) :-0.1443117E-02  (-0.1028716E-02)
 number of electron      70.0000036 magnetization 
 augmentation part        2.8989625 magnetization 

 Broyden mixing:
  rms(total) = 0.85055E-02    rms(broyden)= 0.85011E-02
  rms(prec ) = 0.14230E-01
  weight for this iteration     100.00

 eigenvalues of (default mixing * dielectric matrix)
  average eigenvalue GAMMA=   1.8563
  3.8637  2.3290  1.8231  1.8231  0.9918  0.9918  1.1714

 Free energy of the ion-electron system (eV)
  ---------------------------------------------------
  alpha Z        PSCENC =         2.29909595
  Ewald energy   TEWEN  =      6378.70908032
  -Hartree energ DENC   =     -8735.39164887
  -exchange      EXHF   =         0.00000000
  -V(xc)+E(xc)   XCENC  =       255.11055200
  PAW double counting   =      6052.45453399    -6065.87103783
  entropy T*S    EENTRO =        -0.00000000
  eigenvalues    EBANDS =      -911.21353992
  atomic energy  EATOM  =      2867.83248741
  Solvation  Ediel_sol  =         0.00000000
  ---------------------------------------------------
  free energy    TOTEN  =      -156.07047695 eV

  energy without entropy =     -156.07047695  energy(sigma->0) =     -156.07047695


--------------------------------------------------------------------------------------------------------




--------------------------------------- Iteration      1(  15)  ---------------------------------------


    POTLOK:  cpu time    1.6158: real time    1.6195
    SETDIJ:  cpu time    0.0060: real time    0.0058
    EDDIAG:  cpu time    0.8159: real time    0.8176
  RMM-DIIS:  cpu time    3.0825: real time    3.0891
    ORTHCH:  cpu time    0.1390: real time    0.1391
       DOS:  cpu time    0.0000: real time    0.0003
    CHARGE:  cpu time    0.4779: real time    0.4789
    MIXING:  cpu time    0.0690: real time    0.0693
    --------------------------------------------
      LOOP:  cpu time    6.2061: real time    6.2195

 eigenvalue-minimisations  :    97
 total energy-change (2. order) :-0.7568726E-02  (-0.3827494E-03)
 number of electron      70.0000036 magnetization 
 augmentation part        2.8974070 magnetization 

 Broyden mixing:
  rms(total) = 0.47279E-02    rms(broyden)= 0.47220E-02
  rms(prec ) = 0.81045E-02
  weight for this iteration     100.00

 eigenvalues of (default mixing * dielectric matrix)
  average eigenvalue GAMMA=   2.0041
  5.1911  2.5166  1.9304  0.9511  0.9511  1.7100  1.5172  1.2652

 Free energy of the ion-electron system (eV)
  ---------------------------------------------------
  alpha Z        PSCENC =         2.29909595
  Ewald energy   TEWEN  =      6378.70908032
  -Hartree energ DENC   =     -8740.41288721
  -exchange      EXHF   =         0.00000000
  -V(xc)+E(xc)   XCENC  =       255.16483844
  PAW double counting   =      6052.75947448    -6066.17694564
  entropy T*S    EENTRO =        -0.00000000
  eigenvalues    EBANDS =      -906.25318943
  atomic energy  EATOM  =      2867.83248741
  Solvation  Ediel_sol  =         0.00000000
  ---------------------------------------------------
  free energy    TOTEN  =      -156.07804568 eV

  energy without entropy =     -156.07804568  energy(sigma->0) =     -156.07804568


--------------------------------------------------------------------------------------------------------




--------------------------------------- Iteration      1(  16)  ---------------------------------------


    POTLOK:  cpu time    1.6218: real time    1.6254
    SETDIJ:  cpu time    0.0060: real time    0.0059
    EDDIAG:  cpu time    0.8209: real time    0.8224
  RMM-DIIS:  cpu time    2.9815: real time    2.9885
    ORTHCH:  cpu time    0.1390: real time    0.1386
       DOS:  cpu time    0.0000: real time    0.0002
    CHARGE:  cpu time    0.4799: real time    0.4811
    MIXING:  cpu time    0.0730: real time    0.0737
    --------------------------------------------
      LOOP:  cpu time    6.1221: real time    6.1357

 eigenvalue-minimisations  :    96
 total energy-change (2. order) :-0.9483077E-02  (-0.1567788E-03)
 number of electron      70.0000036 magnetization 
 augmentation part        2.8975763 magnetization 

 Broyden mixing:
  rms(total) = 0.27482E-02    rms(broyden)= 0.27466E-02
  rms(prec ) = 0.46482E-02
  weight for this iteration     100.00

 eigenvalues of (default mixing * dielectric matrix)
  average eigenvalue GAMMA=   2.0554
  5.9009  2.7010  2.0858  2.0858  1.4981  0.9405  0.9405  1.1729  1.1729

 Free energy of the ion-electron system (eV)
  ---------------------------------------------------
  alpha Z        PSCENC =         2.29909595
  Ewald energy   TEWEN  =      6378.70908032
  -Hartree energ DENC   =     -8742.70227071
  -exchange      EXHF   =         0.00000000
  -V(xc)+E(xc)   XCENC  =       255.15833282
  PAW double counting   =      6045.31936417    -6058.73556340
  entropy T*S    EENTRO =        -0.00000000
  eigenvalues    EBANDS =      -903.96805531
  atomic energy  EATOM  =      2867.83248741
  Solvation  Ediel_sol  =         0.00000000
  ---------------------------------------------------
  free energy    TOTEN  =      -156.08752876 eV

  energy without entropy =     -156.08752876  energy(sigma->0) =     -156.08752876


--------------------------------------------------------------------------------------------------------




--------------------------------------- Iteration      1(  17)  ---------------------------------------


    POTLOK:  cpu time    1.6218: real time    1.6279
    SETDIJ:  cpu time    0.0060: real time    0.0063
    EDDIAG:  cpu time    0.8189: real time    0.8211
  RMM-DIIS:  cpu time    2.9246: real time    2.9301
    ORTHCH:  cpu time    0.1380: real time    0.1385
       DOS:  cpu time    0.0010: real time    0.0006
    CHARGE:  cpu time    0.4779: real time    0.4799
    MIXING:  cpu time    0.0800: real time    0.0801
    --------------------------------------------
      LOOP:  cpu time    6.0681: real time    6.0845

 eigenvalue-minimisations  :    93
 total energy-change (2. order) :-0.6398454E-02  (-0.8528730E-04)
 number of electron      70.0000036 magnetization 
 augmentation part        2.8973185 magnetization 

 Broyden mixing:
  rms(total) = 0.16781E-02    rms(broyden)= 0.16774E-02
  rms(prec ) = 0.28540E-02
  weight for this iteration     100.00

 eigenvalues of (default mixing * dielectric matrix)
  average eigenvalue GAMMA=   2.1733
  6.5922  3.3200  2.3075  1.8929  1.8929  1.5967  1.1281  1.1281  0.9374  0.9374

 Free energy of the ion-electron system (eV)
  ---------------------------------------------------
  alpha Z        PSCENC =         2.29909595
  Ewald energy   TEWEN  =      6378.70908032
  -Hartree energ DENC   =     -8743.41688989
  -exchange      EXHF   =         0.00000000
  -V(xc)+E(xc)   XCENC  =       255.15072632
  PAW double counting   =      6047.98194059    -6061.39712727
  entropy T*S    EENTRO =        -0.00000000
  eigenvalues    EBANDS =      -903.25324063
  atomic energy  EATOM  =      2867.83248741
  Solvation  Ediel_sol  =         0.00000000
  ---------------------------------------------------
  free energy    TOTEN  =      -156.09392721 eV

  energy without entropy =     -156.09392721  energy(sigma->0) =     -156.09392721


--------------------------------------------------------------------------------------------------------




--------------------------------------- Iteration      1(  18)  ---------------------------------------


    POTLOK:  cpu time    1.6258: real time    1.6294
    SETDIJ:  cpu time    0.0060: real time    0.0058
    EDDIAG:  cpu time    0.8209: real time    0.8223
  RMM-DIIS:  cpu time    3.1245: real time    3.1314
    ORTHCH:  cpu time    0.1400: real time    0.1399
       DOS:  cpu time    0.0000: real time    0.0003
    CHARGE:  cpu time    0.4799: real time    0.4807
    MIXING:  cpu time    0.0860: real time    0.0867
    --------------------------------------------
      LOOP:  cpu time    6.2830: real time    6.2966

 eigenvalue-minimisations  :    93
 total energy-change (2. order) :-0.4701741E-02  (-0.7575036E-04)
 number of electron      70.0000036 magnetization 
 augmentation part        2.8971544 magnetization 

 Broyden mixing:
  rms(total) = 0.10827E-02    rms(broyden)= 0.10823E-02
  rms(prec ) = 0.15954E-02
  weight for this iteration     100.00

 eigenvalues of (default mixing * dielectric matrix)
  average eigenvalue GAMMA=   2.2604
  7.2183  4.2735  2.3862  2.3862  1.8071  1.3306  1.3306  0.9529  0.9529  1.1129
  1.1129

 Free energy of the ion-electron system (eV)
  ---------------------------------------------------
  alpha Z        PSCENC =         2.29909595
  Ewald energy   TEWEN  =      6378.70908032
  -Hartree energ DENC   =     -8743.76841262
  -exchange      EXHF   =         0.00000000
  -V(xc)+E(xc)   XCENC  =       255.14118825
  PAW double counting   =      6048.87241869    -6062.28804764
  entropy T*S    EENTRO =        -0.00000000
  eigenvalues    EBANDS =      -902.89643932
  atomic energy  EATOM  =      2867.83248741
  Solvation  Ediel_sol  =         0.00000000
  ---------------------------------------------------
  free energy    TOTEN  =      -156.09862895 eV

  energy without entropy =     -156.09862895  energy(sigma->0) =     -156.09862895


--------------------------------------------------------------------------------------------------------




--------------------------------------- Iteration      1(  19)  ---------------------------------------


    POTLOK:  cpu time    1.6228: real time    1.6258
    SETDIJ:  cpu time    0.0060: real time    0.0064
    EDDIAG:  cpu time    0.8169: real time    0.8186
  RMM-DIIS:  cpu time    2.8756: real time    2.8810
    ORTHCH:  cpu time    0.1380: real time    0.1391
       DOS:  cpu time    0.0010: real time    0.0003
    CHARGE:  cpu time    0.4789: real time    0.4800
    MIXING:  cpu time    0.0950: real time    0.0956
    --------------------------------------------
      LOOP:  cpu time    6.0341: real time    6.0469

 eigenvalue-minimisations  :    88
 total energy-change (2. order) :-0.1677450E-02  (-0.2569570E-04)
 number of electron      70.0000036 magnetization 
 augmentation part        2.8972166 magnetization 

 Broyden mixing:
  rms(total) = 0.52246E-03    rms(broyden)= 0.52215E-03
  rms(prec ) = 0.84439E-03
  weight for this iteration     100.00

 eigenvalues of (default mixing * dielectric matrix)
  average eigenvalue GAMMA=   2.3340
  7.7353  4.7642  2.5592  2.1457  2.1457  1.9835  1.2616  1.2616  1.2232  0.9494
  0.9494  1.0289

 Free energy of the ion-electron system (eV)
  ---------------------------------------------------
  alpha Z        PSCENC =         2.29909595
  Ewald energy   TEWEN  =      6378.70908032
  -Hartree energ DENC   =     -8743.82714004
  -exchange      EXHF   =         0.00000000
  -V(xc)+E(xc)   XCENC  =       255.13496768
  PAW double counting   =      6048.75272981    -6062.16764867
  entropy T*S    EENTRO =        -0.00000000
  eigenvalues    EBANDS =      -902.83387886
  atomic energy  EATOM  =      2867.83248741
  Solvation  Ediel_sol  =         0.00000000
  ---------------------------------------------------
  free energy    TOTEN  =      -156.10030640 eV

  energy without entropy =     -156.10030640  energy(sigma->0) =     -156.10030640


--------------------------------------------------------------------------------------------------------




--------------------------------------- Iteration      1(  20)  ---------------------------------------


    POTLOK:  cpu time    1.6258: real time    1.6286
    SETDIJ:  cpu time    0.0050: real time    0.0058
    EDDIAG:  cpu time    0.8169: real time    0.8181
  RMM-DIIS:  cpu time    2.7696: real time    2.7758
    ORTHCH:  cpu time    0.1390: real time    0.1396
       DOS:  cpu time    0.0010: real time    0.0002
    CHARGE:  cpu time    0.4799: real time    0.4810
    MIXING:  cpu time    0.1010: real time    0.1019
    --------------------------------------------
      LOOP:  cpu time    5.9381: real time    5.9510

 eigenvalue-minimisations  :    81
 total energy-change (2. order) :-0.8469630E-03  (-0.7885374E-05)
 number of electron      70.0000036 magnetization 
 augmentation part        2.8971656 magnetization 

 Broyden mixing:
  rms(total) = 0.30678E-03    rms(broyden)= 0.30655E-03
  rms(prec ) = 0.46239E-03
  weight for this iteration     100.00

 eigenvalues of (default mixing * dielectric matrix)
  average eigenvalue GAMMA=   2.3371
  7.9901  5.4112  2.9199  2.4412  2.0149  1.8336  1.3188  1.3188  0.9523  0.9523
  1.0299  1.0999  1.0999

 Free energy of the ion-electron system (eV)
  ---------------------------------------------------
  alpha Z        PSCENC =         2.29909595
  Ewald energy   TEWEN  =      6378.70908032
  -Hartree energ DENC   =     -8743.88355182
  -exchange      EXHF   =         0.00000000
  -V(xc)+E(xc)   XCENC  =       255.13428688
  PAW double counting   =      6048.49471643    -6061.90972793
  entropy T*S    EENTRO =        -0.00000000
  eigenvalues    EBANDS =      -902.77754060
  atomic energy  EATOM  =      2867.83248741
  Solvation  Ediel_sol  =         0.00000000
  ---------------------------------------------------
  free energy    TOTEN  =      -156.10115336 eV

  energy without entropy =     -156.10115336  energy(sigma->0) =     -156.10115336


--------------------------------------------------------------------------------------------------------




--------------------------------------- Iteration      1(  21)  ---------------------------------------


    POTLOK:  cpu time    1.6168: real time    1.6199
    SETDIJ:  cpu time    0.0050: real time    0.0058
    EDDIAG:  cpu time    0.8189: real time    0.8209
  RMM-DIIS:  cpu time    2.1177: real time    2.1217
    ORTHCH:  cpu time    0.1390: real time    0.1395
       DOS:  cpu time    0.0010: real time    0.0002
    CHARGE:  cpu time    0.4789: real time    0.4798
    MIXING:  cpu time    0.1090: real time    0.1099
    --------------------------------------------
      LOOP:  cpu time    5.2862: real time    5.2978

 eigenvalue-minimisations  :    61
 total energy-change (2. order) :-0.2226603E-03  (-0.1280295E-05)
 number of electron      70.0000036 magnetization 
 augmentation part        2.8971747 magnetization 

 Broyden mixing:
  rms(total) = 0.17775E-03    rms(broyden)= 0.17769E-03
  rms(prec ) = 0.28854E-03
  weight for this iteration     100.00

 eigenvalues of (default mixing * dielectric matrix)
  average eigenvalue GAMMA=   2.4419
  8.3871  5.9038  3.5391  2.5064  2.1652  2.1652  1.7965  1.3067  1.3067  1.1114
  1.1114  0.9521  0.9521  0.9821

 Free energy of the ion-electron system (eV)
  ---------------------------------------------------
  alpha Z        PSCENC =         2.29909595
  Ewald energy   TEWEN  =      6378.70908032
  -Hartree energ DENC   =     -8743.91318597
  -exchange      EXHF   =         0.00000000
  -V(xc)+E(xc)   XCENC  =       255.13380170
  PAW double counting   =      6048.17718523    -6061.59225701
  entropy T*S    EENTRO =        -0.00000000
  eigenvalues    EBANDS =      -902.74758365
  atomic energy  EATOM  =      2867.83248741
  Solvation  Ediel_sol  =         0.00000000
  ---------------------------------------------------
  free energy    TOTEN  =      -156.10137602 eV

  energy without entropy =     -156.10137602  energy(sigma->0) =     -156.10137602


--------------------------------------------------------------------------------------------------------




--------------------------------------- Iteration      1(  22)  ---------------------------------------


    POTLOK:  cpu time    1.6188: real time    1.6222
    SETDIJ:  cpu time    0.0060: real time    0.0060
    EDDIAG:  cpu time    0.8159: real time    0.8177
  RMM-DIIS:  cpu time    2.0037: real time    2.0073
    ORTHCH:  cpu time    0.1390: real time    0.1396
       DOS:  cpu time    0.0000: real time    0.0002
    CHARGE:  cpu time    0.4799: real time    0.4805
    MIXING:  cpu time    0.1230: real time    0.1238
    --------------------------------------------
      LOOP:  cpu time    5.1862: real time    5.1973

 eigenvalue-minimisations  :    56
 total energy-change (2. order) :-0.2106242E-03  (-0.1038530E-05)
 number of electron      70.0000036 magnetization 
 augmentation part        2.8971736 magnetization 

 Broyden mixing:
  rms(total) = 0.10724E-03    rms(broyden)= 0.10718E-03
  rms(prec ) = 0.14772E-03
  weight for this iteration     100.00

 eigenvalues of (default mixing * dielectric matrix)
  average eigenvalue GAMMA=   2.4012
  8.4924  6.1729  3.7800  2.5848  2.2532  2.0769  1.6597  1.3590  1.3590  1.2044
  0.9481  0.9481  0.9635  1.1083  1.1083

 Free energy of the ion-electron system (eV)
  ---------------------------------------------------
  alpha Z        PSCENC =         2.29909595
  Ewald energy   TEWEN  =      6378.70908032
  -Hartree energ DENC   =     -8743.95791868
  -exchange      EXHF   =         0.00000000
  -V(xc)+E(xc)   XCENC  =       255.13381647
  PAW double counting   =      6048.13764391    -6061.55269211
  entropy T*S    EENTRO =        -0.00000000
  eigenvalues    EBANDS =      -902.70309992
  atomic energy  EATOM  =      2867.83248741
  Solvation  Ediel_sol  =         0.00000000
  ---------------------------------------------------
  free energy    TOTEN  =      -156.10158665 eV

  energy without entropy =     -156.10158665  energy(sigma->0) =     -156.10158665


--------------------------------------------------------------------------------------------------------




--------------------------------------- Iteration      1(  23)  ---------------------------------------


    POTLOK:  cpu time    1.6148: real time    1.6178
    SETDIJ:  cpu time    0.0060: real time    0.0059
    EDDIAG:  cpu time    0.8209: real time    0.8226
  RMM-DIIS:  cpu time    1.8687: real time    1.8726
    ORTHCH:  cpu time    0.1380: real time    0.1391
       DOS:  cpu time    0.0010: real time    0.0002
    CHARGE:  cpu time    0.4789: real time    0.4800
    MIXING:  cpu time    0.1250: real time    0.1255
    --------------------------------------------
      LOOP:  cpu time    5.0532: real time    5.0638

 eigenvalue-minimisations  :    45
 total energy-change (2. order) :-0.3642992E-04  (-0.2690812E-06)
 number of electron      70.0000036 magnetization 
 augmentation part        2.8971677 magnetization 

 Broyden mixing:
  rms(total) = 0.55624E-04    rms(broyden)= 0.55590E-04
  rms(prec ) = 0.87486E-04
  weight for this iteration     100.00

 eigenvalues of (default mixing * dielectric matrix)
  average eigenvalue GAMMA=   2.4725
  8.8413  6.6291  4.3011  2.7660  2.2876  2.2876  1.7886  1.7886  1.3478  1.3478
  1.1465  1.1465  0.9527  0.9527  0.9880  0.9880

 Free energy of the ion-electron system (eV)
  ---------------------------------------------------
  alpha Z        PSCENC =         2.29909595
  Ewald energy   TEWEN  =      6378.70908032
  -Hartree energ DENC   =     -8743.96127684
  -exchange      EXHF   =         0.00000000
  -V(xc)+E(xc)   XCENC  =       255.13386417
  PAW double counting   =      6048.20049069    -6061.61553648
  entropy T*S    EENTRO =        -0.00000000
  eigenvalues    EBANDS =      -902.69982829
  atomic energy  EATOM  =      2867.83248741
  Solvation  Ediel_sol  =         0.00000000
  ---------------------------------------------------
  free energy    TOTEN  =      -156.10162308 eV

  energy without entropy =     -156.10162308  energy(sigma->0) =     -156.10162308


--------------------------------------------------------------------------------------------------------




--------------------------------------- Iteration      1(  24)  ---------------------------------------


    POTLOK:  cpu time    1.6118: real time    1.6157
    SETDIJ:  cpu time    0.0060: real time    0.0060
    EDDIAG:  cpu time    0.8169: real time    0.8187
  RMM-DIIS:  cpu time    1.6887: real time    1.6916
    ORTHCH:  cpu time    0.1380: real time    0.1389
       DOS:  cpu time    0.0000: real time    0.0002
    CHARGE:  cpu time    0.4789: real time    0.4795
    MIXING:  cpu time    0.1350: real time    0.1352
    --------------------------------------------
      LOOP:  cpu time    4.8753: real time    4.8856

 eigenvalue-minimisations  :    38
 total energy-change (2. order) :-0.3673754E-04  (-0.1306874E-06)
 number of electron      70.0000036 magnetization 
 augmentation part        2.8971645 magnetization 

 Broyden mixing:
  rms(total) = 0.31786E-04    rms(broyden)= 0.31741E-04
  rms(prec ) = 0.46217E-04
  weight for this iteration     100.00

 eigenvalues of (default mixing * dielectric matrix)
  average eigenvalue GAMMA=   2.4821
  8.9630  6.8234  4.6752  3.0714  2.4685  2.2720  1.9047  1.6607  1.6607  1.2383
  1.2383  1.1850  1.1850  0.9513  0.9513  0.9735  0.9735

 Free energy of the ion-electron system (eV)
  ---------------------------------------------------
  alpha Z        PSCENC =         2.29909595
  Ewald energy   TEWEN  =      6378.70908032
  -Hartree energ DENC   =     -8743.96622125
  -exchange      EXHF   =         0.00000000
  -V(xc)+E(xc)   XCENC  =       255.13379150
  PAW double counting   =      6048.21573075    -6061.63076312
  entropy T*S    EENTRO =        -0.00000000
  eigenvalues    EBANDS =      -902.69486137
  atomic energy  EATOM  =      2867.83248741
  Solvation  Ediel_sol  =         0.00000000
  ---------------------------------------------------
  free energy    TOTEN  =      -156.10165982 eV

  energy without entropy =     -156.10165982  energy(sigma->0) =     -156.10165982


--------------------------------------------------------------------------------------------------------




--------------------------------------- Iteration      1(  25)  ---------------------------------------


    POTLOK:  cpu time    1.6298: real time    1.6339
    SETDIJ:  cpu time    0.0070: real time    0.0067
    EDDIAG:  cpu time    0.8159: real time    0.8175
  RMM-DIIS:  cpu time    1.6637: real time    1.6675
    ORTHCH:  cpu time    0.1450: real time    0.1448
       DOS:  cpu time    0.0000: real time    0.0002
    CHARGE:  cpu time    0.4799: real time    0.4809
    MIXING:  cpu time    0.1430: real time    0.1429
    --------------------------------------------
      LOOP:  cpu time    4.8843: real time    4.8945

 eigenvalue-minimisations  :    33
 total energy-change (2. order) :-0.1191370E-04  (-0.4296842E-07)
 number of electron      70.0000036 magnetization 
 augmentation part        2.8971651 magnetization 

 Broyden mixing:
  rms(total) = 0.16578E-04    rms(broyden)= 0.16575E-04
  rms(prec ) = 0.25419E-04
  weight for this iteration     100.00

 eigenvalues of (default mixing * dielectric matrix)
  average eigenvalue GAMMA=   2.5104
  9.0847  7.2076  4.9740  3.4237  2.5779  2.2582  2.2582  1.7078  1.7078  1.3620
  1.3620  1.1691  1.1691  0.9521  0.9521  1.0345  1.0345  0.9524

 Free energy of the ion-electron system (eV)
  ---------------------------------------------------
  alpha Z        PSCENC =         2.29909595
  Ewald energy   TEWEN  =      6378.70908032
  -Hartree energ DENC   =     -8743.96914792
  -exchange      EXHF   =         0.00000000
  -V(xc)+E(xc)   XCENC  =       255.13376768
  PAW double counting   =      6048.23587242    -6061.65088702
  entropy T*S    EENTRO =        -0.00000000
  eigenvalues    EBANDS =      -902.69194057
  atomic energy  EATOM  =      2867.83248741
  Solvation  Ediel_sol  =         0.00000000
  ---------------------------------------------------
  free energy    TOTEN  =      -156.10167173 eV

  energy without entropy =     -156.10167173  energy(sigma->0) =     -156.10167173


--------------------------------------------------------------------------------------------------------




--------------------------------------- Iteration      1(  26)  ---------------------------------------


    POTLOK:  cpu time    1.6298: real time    1.6333
    SETDIJ:  cpu time    0.0060: real time    0.0060
    EDDIAG:  cpu time    0.8179: real time    0.8202
  RMM-DIIS:  cpu time    1.6597: real time    1.6630
    ORTHCH:  cpu time    0.1380: real time    0.1389
       DOS:  cpu time    0.0010: real time    0.0003
    --------------------------------------------
      LOOP:  cpu time    4.2524: real time    4.2617

 eigenvalue-minimisations  :    31
 total energy-change (2. order) :-0.5874127E-05  (-0.2020426E-07)
 number of electron      70.0000036 magnetization 
 augmentation part        2.8971651 magnetization 

 Free energy of the ion-electron system (eV)
  ---------------------------------------------------
  alpha Z        PSCENC =         2.29909595
  Ewald energy   TEWEN  =      6378.70908032
  -Hartree energ DENC   =     -8743.96814413
  -exchange      EXHF   =         0.00000000
  -V(xc)+E(xc)   XCENC  =       255.13373114
  PAW double counting   =      6048.22976095    -6061.64477644
  entropy T*S    EENTRO =        -0.00000000
  eigenvalues    EBANDS =      -902.69291280
  atomic energy  EATOM  =      2867.83248741
  Solvation  Ediel_sol  =         0.00000000
  ---------------------------------------------------
  free energy    TOTEN  =      -156.10167760 eV

  energy without entropy =     -156.10167760  energy(sigma->0) =     -156.10167760


--------------------------------------------------------------------------------------------------------




 average (electrostatic) potential at core
  the test charge radii are     0.7215  0.6991  0.7089  0.5201
  (the norm of the test charge is              1.0000)
       1 -79.7346       2 -81.4784       3 -58.4104       4 -58.5040       5 -58.4602
       6 -58.3576       7 -59.6586       8 -58.2507       9 -59.4544      10 -62.0844
      11 -59.7173      12 -73.5856      13 -74.6193      14 -41.8404      15 -42.0130
      16 -41.6457      17 -43.8822      18 -43.8516      19 -44.5010      20 -41.7133
      21 -41.7665      22 -41.7885      23 -42.2322      24 -42.0318      25 -42.0270
 
 
 
 E-fermi :  -4.4888     XC(G=0):  -0.3672     alpha+bet : -0.1685


 k-point     1 :       0.0000    0.0000    0.0000
  band No.  band energies     occupation 
      1     -27.5600      2.00000
      2     -25.2000      2.00000
      3     -23.5751      2.00000
      4     -22.8064      2.00000
      5     -20.5598      2.00000
      6     -18.9972      2.00000
      7     -17.8987      2.00000
      8     -17.8024      2.00000
      9     -16.6039      2.00000
     10     -15.3394      2.00000
     11     -14.6711      2.00000
     12     -14.1575      2.00000
     13     -13.4758      2.00000
     14     -12.9161      2.00000
     15     -12.3781      2.00000
     16     -11.7073      2.00000
     17     -11.3846      2.00000
     18     -11.2934      2.00000
     19     -10.7103      2.00000
     20     -10.4785      2.00000
     21     -10.2671      2.00000
     22     -10.1587      2.00000
     23     -10.0403      2.00000
     24      -9.8856      2.00000
     25      -9.2380      2.00000
     26      -8.9316      2.00000
     27      -8.6083      2.00000
     28      -8.4807      2.00000
     29      -8.1441      2.00000
     30      -7.9441      2.00000
     31      -7.0287      2.00000
     32      -6.8331      2.00000
     33      -6.3052      2.00000
     34      -5.2790      2.00000
     35      -4.6864      2.00000
     36      -0.9381      0.00000
     37      -0.6466      0.00000
     38      -0.5665      0.00000
     39      -0.4066      0.00000
     40      -0.1353      0.00000
     41       0.0101      0.00000
     42       0.2081      0.00000
     43       0.2197      0.00000
     44       0.3129      0.00000
     45       0.4155      0.00000
     46       0.5114      0.00000
     47       0.5277      0.00000
     48       0.5942      0.00000


--------------------------------------------------------------------------------------------------------


 soft charge-density along one line, spin component           1
         0         1         2         3         4         5         6         7         8         9
 total charge-density along one line
 
 pseudopotential strength for first ion, spin component:           1
 13.663 -16.740   0.085  -0.009  -0.107  -0.107   0.012   0.134
-16.740  20.541  -0.108   0.012   0.136   0.136  -0.015  -0.171
  0.085  -0.108 -10.294   0.007   0.103  12.723  -0.009  -0.138
 -0.009   0.012   0.007 -10.283  -0.007  -0.009  12.710   0.009
 -0.107   0.136   0.103  -0.007 -10.341  -0.138   0.009  12.786
 -0.107   0.136  12.723  -0.009  -0.138 -15.646   0.012   0.185
  0.012  -0.015  -0.009  12.710   0.009   0.012 -15.630  -0.012
  0.134  -0.171  -0.138   0.009  12.786   0.185  -0.012 -15.731
 total augmentation occupancy for first ion, spin component:           1
  2.816   0.485  -0.369   0.040   0.460  -0.159   0.017   0.198
  0.485   0.163  -0.321   0.035   0.404  -0.081   0.009   0.102
 -0.369  -0.321   2.357  -0.028  -0.244   0.323  -0.014  -0.173
  0.040   0.035  -0.028   1.922   0.042  -0.015   0.207   0.018
  0.460   0.404  -0.244   0.042   2.474  -0.173   0.017   0.403
 -0.159  -0.081   0.323  -0.015  -0.173   0.061  -0.004  -0.048
  0.017   0.009  -0.014   0.207   0.017  -0.004   0.028   0.005
  0.198   0.102  -0.173   0.018   0.403  -0.048   0.005   0.084


------------------------ aborting loop because EDIFF is reached ----------------------------------------


    CHARGE:  cpu time    0.4789: real time    0.4798
    FORLOC:  cpu time    0.2470: real time    0.2471
    FORNL :  cpu time    0.9399: real time    0.9422
    STRESS:  cpu time    2.8336: real time    2.8400
    FORCOR:  cpu time    1.7497: real time    1.7532
    FORHAR:  cpu time    0.6079: real time    0.6095
    MIXING:  cpu time    0.1500: real time    0.1502
    OFIELD:  cpu time    0.0000: real time    0.0001

  DFT-D2 method for vdW energy calculation
  -------------------------------------------------------------------

  Parameters of vdW forcefield:
         C6(Jnm^6/mol)     R0(A)
   -----------------------------
   O        0.700          1.342
   C        1.750          1.452
   N        1.230          1.397
   H        0.140          1.001

  IVDW =   1
  VDW_RADIUS =    40.000 A
  VDW_S6 =     0.750
  VDW_SR =     1.000
  VDW_D =    20.000
  LVDW_EWALD = F

  Number of pair interactions contributing to vdW energy:    9121
  Edisp (eV):   -0.51373
    FORVDW:  cpu time    0.0210: real time    0.0224

  FORCE on cell =-STRESS in cart. coord.  units (eV):
  Direction    XX          YY          ZZ          XY          YZ          ZX
  --------------------------------------------------------------------------------------
  Alpha Z     2.29910     2.29910     2.29910
  Ewald    4024.82123  3967.07326 -1613.18769  1296.04849    17.75913   191.60458
  Hartree  4345.25032  4296.39246   102.32555  1177.69417    22.16642   118.48214
  E(xc)    -273.24664  -273.35878  -279.39559     0.07428    -0.02643     0.33182
  Local   -9061.01932 -8954.22168   676.57961 -2482.59386   -41.17640  -298.31908
  n-local  -144.58862  -142.78084  -146.30840     2.70159     0.08636     0.27029
  augment    12.46374    12.52126    15.40802     0.24106     0.05907    -0.30625
  Kinetic  1093.06619  1091.19904  1240.88766     6.07759     1.12967   -12.02377
  Fock        0.00000     0.00000     0.00000     0.00000     0.00000     0.00000
  vdW         0.00449    -0.00539     0.08667    -0.14738     0.00404    -0.00141
  -------------------------------------------------------------------------------------
  Total      -0.94951    -0.88158    -1.30507     0.09595     0.00185     0.03832
  in kB      -0.16464    -0.15286    -0.22629     0.01664     0.00032     0.00664
  external pressure =       -0.18 kB  Pullay stress =        0.00 kB


 VOLUME and BASIS-vectors are now :
 -----------------------------------------------------------------------------
  energy-cutoff  :      450.00
  volume of cell :     9240.00
      direct lattice vectors                 reciprocal lattice vectors
    20.000000000  0.000000000  0.000000000     0.050000000  0.000000000  0.000000000
     0.000000000 21.000000000  0.000000000     0.000000000  0.047619048  0.000000000
     0.000000000  0.000000000 22.000000000     0.000000000  0.000000000  0.045454545

  length of vectors
    20.000000000 21.000000000 22.000000000     0.050000000  0.047619048  0.045454545


 FORCES acting on ions
    electron-ion (+dipol)            ewald-force                    non-local-force                 convergence-correction
 -----------------------------------------------------------------------------------------------
   0.258E+03 -.332E+03 0.278E+02   -.302E+03 0.367E+03 -.316E+02   0.433E+02 -.344E+02 0.378E+01   -.389E-04 -.149E-04 0.413E-05
   -.342E+03 -.876E+01 -.222E+02   0.377E+03 -.153E+02 0.252E+02   -.348E+02 0.241E+02 -.298E+01   0.116E-04 -.715E-04 0.106E-04
[...]
  -------------------------------------------------------------------------------------
  Total      -1.05790    -1.21579    -1.37512     0.01166    -0.00984     0.03088
  in kB      -0.18344    -0.21081    -0.23844     0.00202    -0.00171     0.00536
  external pressure =       -0.21 kB  Pullay stress =        0.00 kB



--------------------------------------------------------------------------------------------------------



  FREE ENERGIE OF THE ION-ELECTRON SYSTEM (eV)
  ---------------------------------------------------
  free  energy   TOTEN  =      -156.61689530 eV

  energy  without entropy=     -156.61689530  energy(sigma->0) =     -156.61689530
 
 d Force = 0.1085830E-03[ 0.800E-04, 0.137E-03]  d Energy = 0.1091290E-03-0.546E-06
 d Force =-0.2096803E+00[-0.210E+00,-0.210E+00]  d Ewald  =-0.2096803E+00-0.143E-07


--------------------------------------------------------------------------------------------------------


    POTLOK:  cpu time    1.6128: real time    1.6370


--------------------------------------------------------------------------------------------------------


 Conjugate gradient step on ions:
 trial-energy change:   -0.000109  1 .order   -0.000109   -0.000137   -0.000080
  (g-gl).g = 0.169E-03      g.g   = 0.169E-03  gl.gl    = 0.169E-03
 g(Force)  = 0.169E-03   g(Stress)= 0.000E+00 ortho     = 0.274E-05
 gamma     =   1.00010
 trial     =   0.79929
 opt step  =   1.91711  (harmonic =   1.91711) maximal distance =0.00190743
 next E    =  -156.616951   (d E  =  -0.00016)


--------------------------------------------------------------------------------------------------------


    WAVPRE:  cpu time    0.6899: real time    0.7024
    FEWALD:  cpu time    0.0010: real time    0.0008
    ORTHCH:  cpu time    0.4449: real time    0.4460
     LOOP+:  cpu time   37.2993: real time   37.7215


--------------------------------------- Iteration     13(   1)  ---------------------------------------


    POTLOK:  cpu time    1.6318: real time    1.6550
    SETDIJ:  cpu time    0.0060: real time    0.0068
     EDDAV:  cpu time    4.7223: real time    4.7795
       DOS:  cpu time    0.0000: real time    0.0002
    CHARGE:  cpu time    0.4909: real time    0.4912
    MIXING:  cpu time    0.0390: real time    0.0393
    --------------------------------------------
      LOOP:  cpu time    6.8900: real time    6.9721

 eigenvalue-minimisations  :   120
 total energy-change (2. order) : 0.6771033E-04  (-0.2540343E-02)
 number of electron      70.0000037 magnetization 
 augmentation part        2.8956352 magnetization 

  free energy =  -0.156101250369E+03  energy without entropy=  -0.156101250369E+03


--------------------------------------------------------------------------------------------------------




--------------------------------------- Iteration     13(   2)  ---------------------------------------


    POTLOK:  cpu time    1.6248: real time    1.6475
    SETDIJ:  cpu time    0.0070: real time    0.0066
    EDDIAG:  cpu time    0.8119: real time    0.8226
  RMM-DIIS:  cpu time    2.9655: real time    2.9922
    ORTHCH:  cpu time    0.1340: real time    0.1439
       DOS:  cpu time    0.0010: real time    0.0005
    CHARGE:  cpu time    0.4789: real time    0.4803
    MIXING:  cpu time    0.0440: real time    0.0438
    --------------------------------------------
      LOOP:  cpu time    6.0671: real time    6.1374

 eigenvalue-minimisations  :    96
 total energy-change (2. order) :-0.3999506E-04  (-0.5484092E-04)
 number of electron      70.0000037 magnetization 
 augmentation part        2.8956677 magnetization 

 eigenvalues of (default mixing * dielectric matrix)
  average eigenvalue GAMMA=   1.0924
  1.0924

  free energy =  -0.156101290364E+03  energy without entropy=  -0.156101290364E+03


--------------------------------------------------------------------------------------------------------




--------------------------------------- Iteration     13(   3)  ---------------------------------------


    POTLOK:  cpu time    1.6138: real time    1.6366
    SETDIJ:  cpu time    0.0060: real time    0.0058
    EDDIAG:  cpu time    0.8149: real time    0.8250
  RMM-DIIS:  cpu time    2.2257: real time    2.2488
    ORTHCH:  cpu time    0.1400: real time    0.1397
       DOS:  cpu time    0.0000: real time    0.0002
    CHARGE:  cpu time    0.4809: real time    0.4824
    MIXING:  cpu time    0.0450: real time    0.0448
    --------------------------------------------
      LOOP:  cpu time    5.3262: real time    5.3832

 eigenvalue-minimisations  :    65
 total energy-change (2. order) : 0.9590199E-06  (-0.2113110E-05)
 number of electron      70.0000037 magnetization 
 augmentation part        2.8956970 magnetization 

 eigenvalues of (default mixing * dielectric matrix)
  average eigenvalue GAMMA=   1.7074
  1.0130  2.4017

  free energy =  -0.156101289405E+03  energy without entropy=  -0.156101289405E+03


--------------------------------------------------------------------------------------------------------




--------------------------------------- Iteration     13(   4)  ---------------------------------------


    POTLOK:  cpu time    1.6138: real time    1.6382
    SETDIJ:  cpu time    0.0060: real time    0.0058
    EDDIAG:  cpu time    0.8049: real time    0.8171
  RMM-DIIS:  cpu time    2.0167: real time    2.0420
    ORTHCH:  cpu time    0.1380: real time    0.1387
       DOS:  cpu time    0.0000: real time    0.0002
    CHARGE:  cpu time    0.4809: real time    0.4817
    MIXING:  cpu time    0.0480: real time    0.0563
    --------------------------------------------
      LOOP:  cpu time    5.1082: real time    5.1799

 eigenvalue-minimisations  :    61
 total energy-change (2. order) :-0.7639755E-06  (-0.1133927E-05)
 number of electron      70.0000037 magnetization 
 augmentation part        2.8956824 magnetization 

 eigenvalues of (default mixing * dielectric matrix)
  average eigenvalue GAMMA=   1.4740
  2.3740  1.0240  1.0240

  free energy =  -0.156101290169E+03  energy without entropy=  -0.156101290169E+03


--------------------------------------------------------------------------------------------------------




--------------------------------------- Iteration     13(   5)  ---------------------------------------


    POTLOK:  cpu time    1.6198: real time    1.6329
    SETDIJ:  cpu time    0.0060: real time    0.0061
    EDDIAG:  cpu time    0.8099: real time    0.8216
  RMM-DIIS:  cpu time    1.9517: real time    1.9771
    ORTHCH:  cpu time    0.1380: real time    0.1388
       DOS:  cpu time    0.0010: real time    0.0002
    --------------------------------------------
      LOOP:  cpu time    4.5263: real time    4.5767

 eigenvalue-minimisations  :    60
 total energy-change (2. order) : 0.6352229E-07  (-0.1662178E-06)
 number of electron      70.0000037 magnetization 
 augmentation part        2.8956824 magnetization 

  free energy =  -0.156101290106E+03  energy without entropy=  -0.156101290106E+03


--------------------------------------------------------------------------------------------------------




------------------------ aborting loop because EDIFF is reached ----------------------------------------


    CHARGE:  cpu time    0.4709: real time    0.4827
    FORLOC:  cpu time    0.2460: real time    0.2464
    FORNL :  cpu time    0.9179: real time    0.9294
    STRESS:  cpu time    2.8296: real time    2.8626
    FORCOR:  cpu time    1.7367: real time    1.7509
    FORHAR:  cpu time    0.5979: real time    0.6102
    MIXING:  cpu time    0.0480: real time    0.0479
    OFIELD:  cpu time    0.0000: real time    0.0000

  Number of pair interactions contributing to vdW energy:    9122
  Edisp (eV):   -0.51566
    FORVDW:  cpu time    0.0030: real time    0.0022

  FORCE on cell =-STRESS in cart. coord.  units (eV):
  Direction    XX          YY          ZZ          XY          YZ          ZX
  --------------------------------------------------------------------------------------
  Alpha Z     2.29910     2.29910     2.29910
  Ewald    4023.54836  3966.18910 -1613.43734  1295.40962    18.18493   191.11466
  Hartree  4344.55388  4294.97393   102.01236  1177.77161    22.58634   118.35344
  E(xc)    -273.21389  -273.31804  -279.36220     0.07072    -0.02612     0.32991
  Local   -9059.30800 -8951.76437   677.09086 -2482.19913   -42.06866  -297.79268
  n-local  -144.50975  -142.68299  -146.22885     2.71501     0.07651     0.27581
  augment    12.47377    12.50926    15.40491     0.24526     0.06080    -0.30434
  Kinetic  1093.11395  1090.62515  1240.76769     6.11619     1.16339   -11.94812
  Fock        0.00000     0.00000     0.00000     0.00000     0.00000     0.00000
  vdW         0.00873    -0.00051     0.08710    -0.14954     0.00377    -0.00093
  -------------------------------------------------------------------------------------
  Total      -1.03387    -1.16938    -1.36638    -0.02026    -0.01904     0.02775
  in kB      -0.17927    -0.20277    -0.23692    -0.00351    -0.00330     0.00481
  external pressure =       -0.21 kB  Pullay stress =        0.00 kB



--------------------------------------------------------------------------------------------------------



  FREE ENERGIE OF THE ION-ELECTRON SYSTEM (eV)
  ---------------------------------------------------
  free  energy   TOTEN  =      -156.61695067 eV

  energy  without entropy=     -156.61695067  energy(sigma->0) =     -156.61695067
 
 d Force = 0.5627081E-04[ 0.680E-06, 0.112E-03]  d Energy = 0.5536813E-04 0.903E-06
 d Force =-0.2928384E+00[-0.293E+00,-0.293E+00]  d Ewald  =-0.2928383E+00-0.386E-07


--------------------------------------------------------------------------------------------------------


    POTLOK:  cpu time    1.6078: real time    1.6284


--------------------------------------------------------------------------------------------------------




--------------------------------------------------------------------------------------------------------


    WAVPRE:  cpu time    0.7009: real time    0.7044
    FEWALD:  cpu time    0.0010: real time    0.0008
    ORTHCH:  cpu time    0.4369: real time    0.4468
     LOOP+:  cpu time   37.5263: real time   37.9763


--------------------------------------- Iteration     14(   1)  ---------------------------------------


    POTLOK:  cpu time    1.6218: real time    1.6361
    SETDIJ:  cpu time    0.0060: real time    0.0067
     EDDAV:  cpu time    4.6973: real time    4.7567
       DOS:  cpu time    0.0000: real time    0.0002
    CHARGE:  cpu time    0.4889: real time    0.4903
    MIXING:  cpu time    0.0400: real time    0.0402
    --------------------------------------------
      LOOP:  cpu time    6.8540: real time    6.9301

 eigenvalue-minimisations  :   120
 total energy-change (2. order) :-0.5284326E-05  (-0.1921096E-02)
 number of electron      70.0000038 magnetization 
 augmentation part        2.8954864 magnetization 

  free energy =  -0.156101295454E+03  energy without entropy=  -0.156101295454E+03


--------------------------------------------------------------------------------------------------------




--------------------------------------- Iteration     14(   2)  ---------------------------------------


    POTLOK:  cpu time    1.6178: real time    1.6406
    SETDIJ:  cpu time    0.0060: real time    0.0060
    EDDIAG:  cpu time    0.8059: real time    0.8174
  RMM-DIIS:  cpu time    2.9336: real time    2.9734
    ORTHCH:  cpu time    0.1380: real time    0.1381
       DOS:  cpu time    0.0000: real time    0.0002
    CHARGE:  cpu time    0.4799: real time    0.4804
    MIXING:  cpu time    0.0430: real time    0.0437
    --------------------------------------------
      LOOP:  cpu time    6.0241: real time    6.0998

 eigenvalue-minimisations  :    96
 total energy-change (2. order) :-0.2953968E-04  (-0.4160439E-04)
 number of electron      70.0000038 magnetization 
 augmentation part        2.8955404 magnetization 

 eigenvalues of (default mixing * dielectric matrix)
  average eigenvalue GAMMA=   1.0671
  1.0671

  free energy =  -0.156101324993E+03  energy without entropy=  -0.156101324993E+03


--------------------------------------------------------------------------------------------------------




--------------------------------------- Iteration     14(   3)  ---------------------------------------


    POTLOK:  cpu time    1.6158: real time    1.6393
    SETDIJ:  cpu time    0.0060: real time    0.0063
    EDDIAG:  cpu time    0.8049: real time    0.8159
  RMM-DIIS:  cpu time    2.0797: real time    2.1055
    ORTHCH:  cpu time    0.1380: real time    0.1381
       DOS:  cpu time    0.0010: real time    0.0004
    CHARGE:  cpu time    0.4709: real time    0.4818
    MIXING:  cpu time    0.0440: real time    0.0448
    --------------------------------------------
      LOOP:  cpu time    5.1602: real time    5.2321

 eigenvalue-minimisations  :    64
 total energy-change (2. order) : 0.2938395E-06  (-0.1531305E-05)
 number of electron      70.0000038 magnetization 
 augmentation part        2.8955647 magnetization 

 eigenvalues of (default mixing * dielectric matrix)
  average eigenvalue GAMMA=   1.6717
  1.0230  2.3205

  free energy =  -0.156101324699E+03  energy without entropy=  -0.156101324699E+03


--------------------------------------------------------------------------------------------------------




--------------------------------------- Iteration     14(   4)  ---------------------------------------


    POTLOK:  cpu time    1.6228: real time    1.6367
    SETDIJ:  cpu time    0.0060: real time    0.0060
    EDDIAG:  cpu time    0.8089: real time    0.8196
  RMM-DIIS:  cpu time    2.0357: real time    2.0583
    ORTHCH:  cpu time    0.1380: real time    0.1388
       DOS:  cpu time    0.0000: real time    0.0002
    CHARGE:  cpu time    0.4799: real time    0.4886
    MIXING:  cpu time    0.0470: real time    0.0474
    --------------------------------------------
      LOOP:  cpu time    5.1382: real time    5.1956

 eigenvalue-minimisations  :    61
 total energy-change (2. order) :-0.1802589E-05  (-0.8170231E-06)
 number of electron      70.0000038 magnetization 
 augmentation part        2.8955377 magnetization 

 eigenvalues of (default mixing * dielectric matrix)
  average eigenvalue GAMMA=   1.4972
  2.3627  1.0645  1.0645

  free energy =  -0.156101326502E+03  energy without entropy=  -0.156101326502E+03


--------------------------------------------------------------------------------------------------------




--------------------------------------- Iteration     14(   5)  ---------------------------------------


    POTLOK:  cpu time    1.6198: real time    1.6346
    SETDIJ:  cpu time    0.0060: real time    0.0058
    EDDIAG:  cpu time    0.8079: real time    0.8183
  RMM-DIIS:  cpu time    1.9437: real time    1.9678
    ORTHCH:  cpu time    0.1370: real time    0.1377
       DOS:  cpu time    0.0000: real time    0.0002
    --------------------------------------------
      LOOP:  cpu time    4.5143: real time    4.5644

 eigenvalue-minimisations  :    59
 total energy-change (2. order) :-0.3251689E-06  (-0.1241694E-06)
 number of electron      70.0000038 magnetization 
 augmentation part        2.8955377 magnetization 

  free energy =  -0.156101326827E+03  energy without entropy=  -0.156101326827E+03


--------------------------------------------------------------------------------------------------------




------------------------ aborting loop because EDIFF is reached ----------------------------------------


    CHARGE:  cpu time    0.4749: real time    0.4854
    FORLOC:  cpu time    0.2460: real time    0.2469
    FORNL :  cpu time    0.9259: real time    0.9365
    STRESS:  cpu time    2.8326: real time    2.8647
    FORCOR:  cpu time    1.7367: real time    1.7486
    FORHAR:  cpu time    0.6049: real time    0.6151
    MIXING:  cpu time    0.0480: real time    0.0478
    OFIELD:  cpu time    0.0000: real time    0.0000

  Number of pair interactions contributing to vdW energy:    9123
  Edisp (eV):   -0.51573
    FORVDW:  cpu time    0.0020: real time    0.0022

  FORCE on cell =-STRESS in cart. coord.  units (eV):
  Direction    XX          YY          ZZ          XY          YZ          ZX
  --------------------------------------------------------------------------------------
  Alpha Z     2.29910     2.29910     2.29910
  Ewald    4023.91938  3965.89691 -1613.46652  1295.42876    18.23644   190.99492
  Hartree  4344.78229  4294.80014   102.00268  1177.76104    22.62629   118.30209
  E(xc)    -273.21402  -273.31883  -279.36280     0.07075    -0.02614     0.32960
  Local   -9059.88754 -8951.31656   677.12500 -2482.19287   -42.15909  -297.63682
  n-local  -144.50831  -142.68464  -146.22903     2.71417     0.07443     0.27767
  augment    12.47246    12.50725    15.40354     0.24636     0.06099    -0.30399
  Kinetic  1093.12480  1090.62996  1240.77679     6.12195     1.17169   -11.93647
  Fock        0.00000     0.00000     0.00000     0.00000     0.00000     0.00000
  vdW         0.00847    -0.00003     0.08706    -0.14986     0.00371    -0.00094
  -------------------------------------------------------------------------------------
  Total      -1.00338    -1.18671    -1.36420     0.00031    -0.01168     0.02606
  in kB      -0.17398    -0.20577    -0.23655     0.00005    -0.00203     0.00452
  external pressure =       -0.21 kB  Pullay stress =        0.00 kB



--------------------------------------------------------------------------------------------------------



  FREE ENERGIE OF THE ION-ELECTRON SYSTEM (eV)
  ---------------------------------------------------
  free  energy   TOTEN  =      -156.61705379 eV

  energy  without entropy=     -156.61705379  energy(sigma->0) =     -156.61705379
 
 d Force = 0.1026307E-03[ 0.643E-04, 0.141E-03]  d Energy = 0.1031235E-03-0.493E-06
 d Force =-0.4966403E-01[-0.493E-01,-0.500E-01]  d Ewald  =-0.4966399E-01-0.451E-07


--------------------------------------------------------------------------------------------------------


    POTLOK:  cpu time    1.6078: real time    1.6291


--------------------------------------------------------------------------------------------------------


 Conjugate gradient step on ions:
 trial-energy change:   -0.000103  1 .order   -0.000103   -0.000141   -0.000064
  (g-gl).g = 0.141E-03      g.g   = 0.137E-03  gl.gl    = 0.169E-03
 g(Force)  = 0.137E-03   g(Stress)= 0.000E+00 ortho     = 0.608E-06
 gamma     =   0.83384
 trial     =   1.02285
 opt step  =   1.87911  (harmonic =   1.87911) maximal distance =0.00167158
 next E    =  -156.617080   (d E  =  -0.00013)


--------------------------------------------------------------------------------------------------------


  
 reached required accuracy - stopping structural energy minimisation
     LOOP+:  cpu time   36.1815: real time   36.6135
    4ORBIT:  cpu time    0.0000: real time    0.0000

 total amount of memory used by VASP MPI-rank0   212117. kBytes
=======================================================================

   base      :      30000. kBytes
   nonlr-proj:       2228. kBytes
   fftplans  :      38602. kBytes
   grid      :     128386. kBytes
   one-center:         76. kBytes
   wavefun   :      12825. kBytes
 
  
  
 General timing and accounting informations for this job:
 ========================================================
  
                  Total CPU time used (sec):      645.547
                            User time (sec):      616.689
                          System time (sec):       28.858
                         Elapsed time (sec):      651.101
  
                   Maximum memory used (kb):      631196.
                   Average memory used (kb):           0.
  
                          Minor page faults:      1336380
                          Major page faults:            0
                 Voluntary context switches:         1534
