 vasp.5.4.4.18Apr17-6-g9f103f2a35 (build Jun 30 2017 19:19:18) complex          
  
 executed on         MareNostrum4 date 2022.12.13  11:21:53
 running on   48 total cores
 distrk:  each k-point on   48 cores,    1 groups
 distr:  one band on NCORES_PER_BAND=   1 cores,   48 groups


--------------------------------------------------------------------------------------------------------


 INCAR:
 POTCAR:    PAW_PBE Ru 04Feb2005                  
 POTCAR:    PAW_PBE H 15Jun2001                   
 POTCAR:    PAW_PBE C 08Apr2002                   

 ----------------------------------------------------------------------------- 
|                                                                             |
|           W    W    AA    RRRRR   N    N  II  N    N   GGGG   !!!           |
|           W    W   A  A   R    R  NN   N  II  NN   N  G    G  !!!           |
|           W    W  A    A  R    R  N N  N  II  N N  N  G       !!!           |
|           W WW W  AAAAAA  RRRRR   N  N N  II  N  N N  G  GGG   !            |
|           WW  WW  A    A  R   R   N   NN  II  N   NN  G    G                |
|           W    W  A    A  R    R  N    N  II  N    N   GGGG   !!!           |
|                                                                             |
|      For optimal performance we recommend to set                            |
|        NCORE= 4 - approx SQRT( number of cores)                             |
|      NCORE specifies how many cores store one orbital (NPAR=cpu/NCORE).     |
|      This setting can  greatly improve the performance of VASP for DFT.     |
|      The default,   NCORE=1            might be grossly inefficient         |
|      on modern multi-core architectures or massively parallel machines.     |
|      Do your own testing !!!!                                               |
|      Unfortunately you need to use the default for GW and RPA calculations. |
|      (for HF NCORE is supported but not extensively tested yet)             |
|                                                                             |
 ----------------------------------------------------------------------------- 

 POTCAR:    PAW_PBE Ru 04Feb2005                  
  local pseudopotential read in
  partial core-charges read in
  partial kinetic energy density read in
  atomic valenz-charges read in
  non local Contribution for L=           2  read in
    real space projection operators read in
  non local Contribution for L=           2  read in
    real space projection operators read in
  non local Contribution for L=           0  read in
    real space projection operators read in
  non local Contribution for L=           0  read in
    real space projection operators read in
  non local Contribution for L=           1  read in
    real space projection operators read in
  non local Contribution for L=           1  read in
    real space projection operators read in
    PAW grid and wavefunctions read in
 
   number of l-projection  operators is LMAX  =           6
   number of lm-projection operators is LMMAX =          18
 
 POTCAR:    PAW_PBE H 15Jun2001                   
  local pseudopotential read in
  atomic valenz-charges read in
  non local Contribution for L=           0  read in
    real space projection operators read in
  non local Contribution for L=           0  read in
    real space projection operators read in
  non local Contribution for L=           1  read in
    real space projection operators read in
    PAW grid and wavefunctions read in
 
   number of l-projection  operators is LMAX  =           3
   number of lm-projection operators is LMMAX =           5
 
 POTCAR:    PAW_PBE C 08Apr2002                   
  local pseudopotential read in
  partial core-charges read in
  partial kinetic energy density read in
  atomic valenz-charges read in
  non local Contribution for L=           0  read in
    real space projection operators read in
  non local Contribution for L=           0  read in
    real space projection operators read in
  non local Contribution for L=           1  read in
    real space projection operators read in
  non local Contribution for L=           1  read in
    real space projection operators read in
    PAW grid and wavefunctions read in
 
   number of l-projection  operators is LMAX  =           4
   number of lm-projection operators is LMMAX =           8
 
 Optimization of the real space projectors (new method)

 maximal supplied QI-value         = 13.98
 optimisation between [QCUT,QGAM] = [ 10.77, 21.68] = [ 32.47,131.56] Ry 
 Optimized for a Real-space Cutoff    1.51 Angstroem

   l    n(q)    QCUT    max X(q) W(low)/X(q) W(high)/X(q)  e(spline) 
   2      9    10.768    61.733    0.26E-03    0.97E-04    0.28E-06
   2      9    10.768    59.886    0.26E-03    0.10E-03    0.29E-06
   0     10    10.768    23.358    0.12E-03    0.28E-03    0.38E-06
   0     10    10.768    11.320    0.93E-04    0.23E-03    0.31E-06
   1      9    10.768    14.765    0.48E-03    0.21E-03    0.19E-06
   1      9    10.768     8.283    0.36E-03    0.16E-03    0.15E-06
 Optimization of the real space projectors (new method)

 maximal supplied QI-value         = 34.20
 optimisation between [QCUT,QGAM] = [ 10.60, 21.55] = [ 31.48,130.03] Ry 
 Optimized for a Real-space Cutoff    1.23 Angstroem

   l    n(q)    QCUT    max X(q) W(low)/X(q) W(high)/X(q)  e(spline) 
   0      8    10.603    19.460    0.37E-03    0.59E-03    0.23E-06
   0      8    10.603    12.209    0.35E-03    0.56E-03    0.22E-06
   1      7    10.603     4.655    0.70E-04    0.28E-03    0.29E-06
 Optimization of the real space projectors (new method)

 maximal supplied QI-value         = 25.13
 optimisation between [QCUT,QGAM] = [ 10.81, 21.61] = [ 32.71,130.83] Ry 
 Optimized for a Real-space Cutoff    1.23 Angstroem

   l    n(q)    QCUT    max X(q) W(low)/X(q) W(high)/X(q)  e(spline) 
   0      8    10.807   115.676    0.36E-03    0.72E-03    0.24E-06
   0      8    10.807    87.132    0.35E-03    0.71E-03    0.24E-06
   1      7    10.807     4.429    0.19E-03    0.39E-03    0.11E-06
   1      7    10.807     2.733    0.14E-03    0.28E-03    0.13E-06
  PAW_PBE Ru 04Feb2005                  :
 energy of atom  1       EATOM= -454.8837
 kinetic energy error for atom=    0.0028 (will be added to EATOM!!)
  PAW_PBE H 15Jun2001                   :
 energy of atom  2       EATOM=  -12.4884
 kinetic energy error for atom=    0.0045 (will be added to EATOM!!)
  PAW_PBE C 08Apr2002                   :
 energy of atom  3       EATOM= -147.1560
 kinetic energy error for atom=    0.0116 (will be added to EATOM!!)
 
 
 POSCAR: Ru  H  C                                
  positions in cartesian coordinates
  No initial velocities read in
 exchange correlation table for  LEXCH =        8
   RHO(1)=    0.500       N(1)  =     2000
   RHO(2)=  100.500       N(2)  =     4000
 


--------------------------------------------------------------------------------------------------------


 ion  position               nearest neighbor table
   1  0.000  0.083  0.000-  14 2.65  13 2.65 114 2.65  57 2.71   2 2.71 101 2.71 102 2.71   3 2.71
                           107 2.71
   2  0.167  0.000  0.000-  69 2.65  14 2.65  16 2.65  57 2.71   1 2.71  60 2.71   4 2.71   3 2.71
                            58 2.71
   3  0.083  0.167  0.000-  19 2.65  15 2.65  14 2.65   7 2.71 107 2.71   1 2.71   8 2.71   2 2.71
                             4 2.71
   4  0.250  0.083  0.000-  17 2.65  16 2.65  15 2.65  60 2.71   5 2.71   6 2.71   2 2.71   8 2.71
                             3 2.71
   5  0.417  0.000  0.000-  72 2.65  17 2.65 109 2.65 153 2.71   4 2.71  97 2.71  60 2.71 151 2.71
                             6 2.71
   6  0.333  0.167  0.000-  22 2.65  18 2.65  17 2.65  10 2.71   8 2.71   4 2.71  11 2.71   5 2.71
                            97 2.71
   7  1.000  0.333  0.000-  19 2.65 120 2.65  20 2.65   3 2.71 107 2.71 108 2.71   8 2.71 149 2.71
                             9 2.71
   8  0.167  0.250  0.000-  22 2.65  15 2.65  20 2.65  10 2.71   6 2.71   3 2.71   7 2.71   4 2.71
                             9 2.71
   9  0.083  0.417  0.000-  21 2.65  61 2.65  20 2.65  49 2.71  50 2.71 149 2.71  10 2.71   8 2.71
                             7 2.71
  10  0.250  0.333  0.000-  22 2.65  23 2.65  21 2.65   6 2.71   8 2.71   9 2.71  11 2.71  50 2.71
                            12 2.71
  11  0.417  0.250  0.000- 115 2.65  18 2.65  23 2.65 103 2.71  99 2.71   6 2.71  10 2.71  97 2.71
                            12 2.71
  12  0.333  0.417  0.000-  24 2.65  64 2.65  23 2.65  52 2.71  53 2.71 103 2.71  50 2.71  11 2.71
                            10 2.71
  13  0.000  0.000  0.107-  25 2.64  81 2.64 125 2.64 101 2.65   1 2.65  57 2.65  14 2.71 168 2.71
                            69 2.71 113 2.71  68 2.71 114 2.71
  14  0.083  0.083  0.107-  27 2.64  25 2.64  26 2.64   1 2.65   2 2.65   3 2.65  69 2.71  13 2.71
                           114 2.71  16 2.71  19 2.71  15 2.71
  15  0.167  0.167  0.107-  28 2.64  32 2.64  27 2.64   8 2.65   3 2.65   4 2.65  20 2.71  22 2.71
                            17 2.71  19 2.71  16 2.71  14 2.71
  16  0.250  0.000  0.107-  28 2.64  84 2.64  26 2.64  60 2.65   4 2.65   2 2.65  17 2.71  72 2.71
                            69 2.71  14 2.71  15 2.71  71 2.71
  17  0.333  0.083  0.107-  29 2.64  28 2.64  30 2.64   4 2.65   5 2.65   6 2.65  72 2.71  16 2.71
                            15 2.71 109 2.71  22 2.71  18 2.71
  18  0.417  0.167  0.107- 121 2.64  35 2.64  30 2.64  11 2.65   6 2.65  97 2.65  23 2.71 115 2.71
                           110 2.71  22 2.71 109 2.71  17 2.71
  19  1.000  0.250  0.107-  31 2.64  27 2.64 131 2.64 107 2.65   7 2.65   3 2.65 114 2.71 119 2.71
                            20 2.71  15 2.71 120 2.71  14 2.71
  20  0.083  0.333  0.107-  33 2.64  31 2.64  32 2.64   8 2.65   7 2.65   9 2.65  15 2.71  22 2.71
                           120 2.71  21 2.71  19 2.71  61 2.71
  21  0.167  0.417  0.107-  33 2.64  74 2.64  34 2.64   9 2.65  50 2.65  10 2.65  62 2.71  61 2.71
                            20 2.71  64 2.71  22 2.71  23 2.71
  22  0.250  0.250  0.107-  30 2.64  32 2.64  34 2.64   8 2.65  10 2.65   6 2.65  15 2.71  20 2.71
                            23 2.71  18 2.71  17 2.71  21 2.71
  23  0.333  0.333  0.107-  35 2.64  36 2.64  34 2.64  11 2.65  10 2.65  12 2.65  18 2.71 115 2.71
                            24 2.71  22 2.71  64 2.71  21 2.71
  24  0.417  0.417  0.107- 127 2.64  77 2.64  36 2.65  12 2.65  53 2.65 103 2.65  65 2.71  64 2.71
                            23 2.71 157 2.71 115 2.71 116 2.71
  25  1.000  0.083  0.214- 138 2.59  38 2.59  37 2.59 114 2.64  13 2.64  14 2.64 126 2.71 131 2.71
                            27 2.71  26 2.71 125 2.71  81 2.71
  26  0.167  1.000  0.214-  93 2.59  38 2.59  40 2.59  69 2.64  14 2.64  16 2.64  81 2.71  82 2.71
                            84 2.71  27 2.71  25 2.71  28 2.71
  27  0.083  0.167  0.214-  39 2.58  43 2.59  38 2.59  14 2.64  15 2.64  19 2.64  32 2.71  25 2.71
                            28 2.71  26 2.71 131 2.71  31 2.71
  28  0.250  0.083  0.213-  39 2.58  41 2.59  40 2.59  16 2.64  17 2.64  15 2.64  29 2.71  84 2.71
                            32 2.71  27 2.71  30 2.71  26 2.71
  29  0.417  0.000  0.213-  41 2.58 133 2.59  96 2.59  17 2.64  72 2.64 109 2.64  28 2.71  84 2.71
                            30 2.71 175 2.71 121 2.71 177 2.72
  30  0.333  0.167  0.214-  42 2.59  41 2.59  46 2.59  18 2.64  17 2.64  22 2.64 121 2.71  29 2.71
                            34 2.71  35 2.71  28 2.71  32 2.71
  31  0.000  0.333  0.213-  44 2.57 144 2.59  43 2.59  20 2.64 120 2.64  19 2.64  32 2.71  33 2.71
                            27 2.71 173 2.71 131 2.72 132 2.72
  32  0.167  0.250  0.214-  44 2.59  46 2.59  39 2.59  15 2.64  20 2.64  22 2.64  31 2.71  33 2.71
                            27 2.71  28 2.71  34 2.71  30 2.71
  33  0.083  0.417  0.213-  44 2.58  45 2.59  85 2.59  21 2.64  20 2.64  61 2.64  34 2.71  31 2.71
                            32 2.71  74 2.71  73 2.72 173 2.72
  34  0.250  0.333  0.214-  47 2.59  45 2.59  46 2.60  22 2.64  23 2.64  21 2.64  33 2.71  36 2.71
                            30 2.71  35 2.71  74 2.71  32 2.71
  35  0.417  0.250  0.213-  42 2.59  47 2.59 139 2.59  18 2.64 115 2.64  23 2.64 121 2.71 123 2.71
                            30 2.71  36 2.71  34 2.71 127 2.71
  36  0.333  0.417  0.214-  48 2.59  88 2.59  47 2.59  23 2.64  64 2.64  24 2.65  76 2.71  74 2.71
                            34 2.71  77 2.71  35 2.71 127 2.71
  37  0.000  1.000  0.316- 125 2.59  81 2.59  25 2.59 192 2.71  92 2.71  38 2.71  93 2.71 137 2.71
                           138 2.71
  38  0.083  0.083  0.316-  25 2.59  27 2.59  26 2.59  39 2.70  93 2.71 138 2.71  37 2.71  40 2.71
                            43 2.71
  39  0.166  0.166  0.316-  27 2.58  28 2.58  32 2.59  38 2.70  40 2.70  43 2.71  46 2.71  41 2.72
                            44 2.72
  40  0.250  0.000  0.317-  84 2.59  26 2.59  28 2.59  39 2.70  41 2.71  38 2.71  93 2.71  95 2.71
                            96 2.71
  41  0.334  0.083  0.316-  29 2.58  30 2.59  28 2.59  46 2.70 133 2.71  96 2.71  40 2.71  42 2.71
                            39 2.72
  42  0.417  0.166  0.316- 121 2.58  30 2.59  35 2.59 133 2.70 134 2.70 139 2.71  41 2.71  47 2.72
                            46 2.72
  43  0.000  0.250  0.317-  27 2.59 131 2.59  31 2.59  44 2.70  39 2.71 143 2.71  38 2.71 138 2.71
                           144 2.71
  44  0.083  0.334  0.316-  31 2.57  33 2.58  32 2.59 144 2.70  43 2.70  85 2.71  45 2.72  39 2.72
                            46 2.72
  45  0.166  0.417  0.317-  74 2.58  33 2.59  34 2.59  85 2.71  86 2.71  88 2.72  44 2.72  47 2.73
                            46 2.73
  46  0.250  0.249  0.317-  32 2.59  30 2.59  34 2.60  41 2.70  39 2.71  42 2.72  44 2.72  47 2.73
                            45 2.73
  47  0.334  0.333  0.317-  35 2.59  36 2.59  34 2.59  48 2.72 139 2.72  42 2.72  88 2.72  46 2.73
                            45 2.73
  48  0.417  0.416  0.316-  77 2.58 127 2.58  36 2.59 140 2.71 181 2.71  89 2.72  47 2.72 139 2.72
                            88 2.72
  49  0.000  0.583  0.000-  62 2.65  61 2.65 162 2.65   9 2.71  50 2.71 149 2.71 150 2.71  51 2.71
                           155 2.71
  50  0.167  0.500  0.000-  21 2.65  62 2.65  64 2.65   9 2.71  49 2.71  52 2.71  12 2.71  51 2.71
                            10 2.71
  51  0.083  0.667  0.000-  67 2.65  63 2.65  62 2.65  55 2.71 155 2.71  49 2.71  56 2.71  50 2.71
                            52 2.71
  52  0.250  0.583  0.000-  65 2.65  64 2.65  63 2.65  12 2.71  53 2.71  54 2.71  50 2.71  56 2.71
                            51 2.71
  53  0.417  0.500  0.000-  24 2.65  65 2.65 157 2.65 145 2.71 105 2.71  12 2.71  52 2.71 103 2.71
                            54 2.71
  54  0.333  0.667  0.000-  70 2.65  66 2.65  65 2.65  58 2.71  56 2.71  59 2.71 145 2.71  52 2.71
                            53 2.71
  55  1.000  0.833  0.000-  67 2.65 168 2.65  68 2.65  51 2.71 155 2.71 156 2.71  56 2.71 101 2.71
                            57 2.71
  56  0.167  0.750  0.000-  70 2.65  63 2.65  68 2.65  54 2.71  58 2.71  51 2.71  55 2.71  52 2.71
                            57 2.71
  57  0.083  0.917  0.000-  69 2.65  13 2.65  68 2.65   1 2.71   2 2.71 101 2.71  58 2.71  56 2.71
                            55 2.71
  58  0.250  0.833  0.000-  70 2.65  71 2.65  69 2.65  54 2.71  59 2.71  56 2.71  57 2.71  60 2.71
                             2 2.71
  59  0.417  0.750  0.000-  66 2.65  71 2.65 163 2.65  58 2.71  54 2.71 151 2.71 147 2.71 145 2.71
                            60 2.71
  60  0.333  0.917  0.000-  16 2.65  71 2.65  72 2.65   4 2.71   2 2.71  58 2.71   5 2.71  59 2.71
                           151 2.71
  61  0.000  0.500  0.107-  73 2.64  33 2.64 173 2.64 149 2.65  49 2.65   9 2.65  62 2.71 120 2.71
                           161 2.71  21 2.71 162 2.71  20 2.71
  62  0.083  0.583  0.107-  73 2.64  75 2.64  74 2.64  49 2.65  50 2.65  51 2.65  21 2.71  61 2.71
                           162 2.71  64 2.71  67 2.71  63 2.71
  63  0.167  0.667  0.107-  80 2.64  75 2.64  76 2.64  56 2.65  51 2.65  52 2.65  68 2.71  70 2.71
                            65 2.71  67 2.71  64 2.71  62 2.71
  64  0.250  0.500  0.107-  76 2.64  74 2.64  36 2.64  52 2.65  12 2.65  50 2.65  65 2.71  24 2.71
                            21 2.71  62 2.71  63 2.71  23 2.71
  65  0.333  0.583  0.107-  78 2.64  77 2.64  76 2.64  52 2.65  53 2.65  54 2.65  24 2.71  64 2.71
                            63 2.71 157 2.71  70 2.71  66 2.71
  66  0.417  0.667  0.107-  78 2.64  83 2.64 169 2.64  59 2.65 145 2.65  54 2.65  71 2.71 163 2.71
                           158 2.71  70 2.71 157 2.71  65 2.71
  67  1.000  0.750  0.107- 179 2.64  79 2.64  75 2.64 155 2.65  55 2.65  51 2.65 162 2.71 167 2.71
                            68 2.71  63 2.71 168 2.71  62 2.71
  68  0.083  0.833  0.107-  81 2.64  79 2.64  80 2.64  56 2.65  55 2.65  57 2.65  63 2.71  70 2.71
                           168 2.71  69 2.71  67 2.71  13 2.71
  69  0.167  0.917  0.107-  81 2.64  26 2.64  82 2.64  57 2.65   2 2.65  58 2.65  14 2.71  13 2.71
                            68 2.71  16 2.71  70 2.71  71 2.71
  70  0.250  0.750  0.107-  82 2.64  80 2.64  78 2.64  56 2.65  54 2.65  58 2.65  63 2.71  68 2.71
                            71 2.71  66 2.71  65 2.71  69 2.71
  71  0.333  0.833  0.107-  83 2.64  84 2.64  82 2.64  59 2.65  60 2.65  58 2.65  66 2.71 163 2.71
                            72 2.71  70 2.71  16 2.71  69 2.71
  72  0.417  0.917  0.107- 175 2.64  29 2.64  84 2.64   5 2.65  60 2.65 151 2.65  17 2.71  16 2.71
                           164 2.71  71 2.71 109 2.71 163 2.71
  73  0.000  0.583  0.213-  86 2.59  85 2.59 186 2.59  62 2.64 162 2.64  61 2.64  75 2.71  74 2.71
                           179 2.71 174 2.71  33 2.72 173 2.72
  74  0.167  0.500  0.214-  45 2.58  86 2.59  88 2.59  21 2.64  62 2.64  64 2.64  73 2.71  33 2.71
                            36 2.71  76 2.71  34 2.71  75 2.71
  75  0.083  0.667  0.214-  86 2.58  87 2.59  91 2.59  67 2.64  62 2.64  63 2.64  73 2.71 179 2.71
                            79 2.71  80 2.71  74 2.71  76 2.71
  76  0.250  0.583  0.214-  88 2.59  89 2.59  87 2.59  64 2.64  65 2.64  63 2.64  36 2.71  77 2.71
                            74 2.71  78 2.71  75 2.71  80 2.71
  77  0.417  0.500  0.214-  48 2.58 181 2.58  89 2.59  24 2.64  65 2.64 157 2.64 127 2.71  76 2.71
                            36 2.71  78 2.71 129 2.71 169 2.72
  78  0.333  0.667  0.214-  90 2.58  89 2.59  94 2.59  66 2.64  65 2.64  70 2.64 169 2.71  83 2.71
                            77 2.71  76 2.71  82 2.71  80 2.71
  79  0.000  0.833  0.214-  92 2.59 192 2.59  91 2.59  68 2.64 168 2.64  67 2.64  81 2.71 179 2.71
                           125 2.71  80 2.71  75 2.71 180 2.71
  80  0.167  0.750  0.214-  92 2.59  87 2.59  94 2.59  68 2.64  70 2.64  63 2.64  81 2.71  82 2.71
                            79 2.71  75 2.71  78 2.71  76 2.71
  81  0.083  0.917  0.213-  37 2.59  93 2.59  92 2.59  69 2.64  68 2.64  13 2.64  82 2.71  26 2.71
                            80 2.71  79 2.71  25 2.71 125 2.71
  82  0.250  0.833  0.214-  93 2.59  94 2.59  95 2.59  69 2.64  70 2.64  71 2.64  81 2.71  26 2.71
                            80 2.71  78 2.71  84 2.71  83 2.71
  83  0.417  0.750  0.214-  90 2.58 187 2.58  95 2.59 163 2.64  66 2.64  71 2.64 169 2.71 171 2.71
                           175 2.71  78 2.71  84 2.71  82 2.71
  84  0.333  0.917  0.214-  96 2.59  95 2.59  40 2.59  16 2.64  72 2.64  71 2.64  29 2.71  28 2.71
                            26 2.71 175 2.71  82 2.71  83 2.71
  85  1.000  0.500  0.316- 173 2.58  73 2.59  33 2.59 185 2.70  45 2.71 144 2.71  44 2.71 186 2.71
                            86 2.71
  86  0.083  0.583  0.316-  75 2.58  73 2.59  74 2.59  45 2.71 186 2.71  91 2.71  87 2.71  88 2.71
                            85 2.71
  87  0.167  0.667  0.317-  75 2.59  80 2.59  76 2.59  88 2.71  91 2.71  92 2.71  86 2.71  89 2.71
                            94 2.71
  88  0.250  0.500  0.317-  76 2.59  36 2.59  74 2.59  87 2.71  89 2.71  86 2.71  45 2.72  48 2.72
                            47 2.72
  89  0.333  0.583  0.317-  76 2.59  78 2.59  77 2.59  88 2.71 181 2.71  94 2.71  87 2.71  90 2.71
                            48 2.72
  90  0.416  0.667  0.316-  83 2.58  78 2.58 169 2.59  95 2.70  94 2.71  89 2.71 187 2.71 182 2.72
                           181 2.72
  91  0.000  0.750  0.317-  75 2.59  79 2.59 179 2.59  92 2.71  87 2.71  86 2.71 192 2.71 191 2.71
                           186 2.71
  92  0.083  0.833  0.317-  79 2.59  80 2.59  81 2.59  91 2.71  37 2.71 192 2.71  87 2.71  94 2.71
                            93 2.71
  93  0.167  0.917  0.317-  82 2.59  26 2.59  81 2.59  38 2.71  94 2.71  37 2.71  40 2.71  95 2.71
                            92 2.71
  94  0.250  0.750  0.317-  82 2.59  80 2.59  78 2.59  90 2.71  93 2.71  92 2.71  95 2.71  89 2.71
                            87 2.71
  95  0.333  0.833  0.317-  84 2.59  82 2.59  83 2.59 187 2.70  90 2.70  96 2.71  94 2.71  93 2.71
                            40 2.71
  96  0.417  0.917  0.316-  84 2.59  29 2.59 175 2.59 187 2.70  41 2.71 188 2.71 133 2.71  95 2.71
                            40 2.71
  97  0.500  0.083  0.000- 110 2.65 109 2.65  18 2.65 153 2.71  98 2.71  99 2.71   5 2.71  11 2.71
                             6 2.71
  98  0.667  0.000  0.000- 165 2.65 110 2.65 112 2.65 156 2.71 100 2.71  97 2.71 153 2.71  99 2.71
                           154 2.71
  99  0.583  0.167  0.000- 115 2.65 111 2.65 110 2.65 103 2.71 104 2.71  11 2.71 100 2.71  97 2.71
                            98 2.71
 100  0.750  0.083  0.000- 112 2.65 111 2.65 113 2.65 156 2.71  98 2.71  99 2.71 101 2.71 104 2.71
                           102 2.71
 101  0.917  0.000  0.000-  13 2.65 168 2.65 113 2.65   1 2.71  57 2.71 100 2.71 156 2.71 102 2.71
                            55 2.71
 102  0.833  0.167  0.000- 114 2.65 118 2.65 113 2.65 106 2.71 107 2.71   1 2.71 104 2.71 101 2.71
                           100 2.71
 103  0.500  0.333  0.000- 115 2.65 116 2.65  24 2.65  99 2.71 104 2.71  11 2.71  12 2.71 105 2.71
                            53 2.71
 104  0.667  0.250  0.000- 111 2.65 116 2.65 118 2.65  99 2.71 103 2.71 106 2.71 102 2.71 100 2.71
                           105 2.71
 105  0.583  0.417  0.000- 157 2.65 116 2.65 117 2.65 145 2.71  53 2.71 103 2.71 146 2.71 104 2.71
                           106 2.71
 106  0.750  0.333  0.000- 119 2.65 118 2.65 117 2.65 102 2.71 107 2.71 108 2.71 104 2.71 146 2.71
                           105 2.71
 107  0.917  0.250  0.000-  19 2.65 114 2.65 119 2.65   7 2.71   3 2.71 102 2.71 106 2.71   1 2.71
                           108 2.71
 108  0.833  0.417  0.000- 160 2.65 120 2.65 119 2.65 148 2.71 146 2.71   7 2.71 106 2.71 149 2.71
                           107 2.71
 109  0.500  0.000  0.107- 177 2.64  29 2.64 121 2.64 153 2.65  97 2.65   5 2.65 110 2.71 165 2.71
                            72 2.71  17 2.71  18 2.71 164 2.71
 110  0.583  0.083  0.107- 122 2.64 121 2.64 123 2.64  97 2.65  98 2.65  99 2.65 165 2.71 109 2.71
                            18 2.71 112 2.71 115 2.71 111 2.71
 111  0.667  0.167  0.107- 123 2.64 128 2.64 124 2.64 104 2.65 100 2.65  99 2.65 116 2.71 118 2.71
                           113 2.71 115 2.71 112 2.71 110 2.71
 112  0.750  0.000  0.107- 122 2.64 124 2.64 180 2.64 156 2.65 100 2.65  98 2.65 113 2.71 168 2.71
                           165 2.71 110 2.71 111 2.71 167 2.71
 113  0.833  0.083  0.107- 126 2.64 125 2.64 124 2.64 101 2.65 100 2.65 102 2.65 168 2.71 112 2.71
                            13 2.71 111 2.71 114 2.71 118 2.71
 114  0.917  0.167  0.107-  25 2.64 131 2.64 126 2.64 102 2.65 107 2.65   1 2.65 119 2.71  19 2.71
                           118 2.71  14 2.71 113 2.71  13 2.71
 115  0.500  0.250  0.107- 127 2.64  35 2.64 123 2.64  11 2.65 103 2.65  99 2.65  18 2.71  23 2.71
                           116 2.71 111 2.71  24 2.71 110 2.71
 116  0.583  0.333  0.107- 127 2.64 128 2.64 129 2.64 104 2.65 105 2.65 103 2.65 111 2.71 118 2.71
                           117 2.71 115 2.71 157 2.71  24 2.71
 117  0.667  0.417  0.107- 129 2.64 130 2.64 170 2.64 146 2.65 105 2.65 106 2.65 158 2.71 160 2.71
                           157 2.71 119 2.71 116 2.71 118 2.71
 118  0.750  0.250  0.107- 128 2.64 126 2.64 130 2.64 106 2.65 102 2.65 104 2.65 111 2.71 116 2.71
                           119 2.71 114 2.71 113 2.71 117 2.71
 119  0.833  0.333  0.107- 131 2.64 132 2.64 130 2.64 106 2.65 107 2.65 108 2.65 114 2.71  19 2.71
                           118 2.71 117 2.71 160 2.71 120 2.71
 120  0.917  0.417  0.107- 173 2.64  31 2.64 132 2.64 149 2.65   7 2.65 108 2.65 161 2.71  61 2.71
                            20 2.71 160 2.71  19 2.71 119 2.71
 121  0.500  0.083  0.214-  42 2.58 133 2.58 134 2.59  18 2.64 110 2.64 109 2.64  35 2.71  30 2.71
                           123 2.71 122 2.71  29 2.71 177 2.72
 122  0.667  1.000  0.213- 189 2.59 134 2.59 136 2.59 165 2.64 112 2.64 110 2.64 178 2.71 180 2.71
                           124 2.71 177 2.71 123 2.71 121 2.71
 123  0.583  0.167  0.214- 139 2.58 134 2.59 135 2.59 115 2.64 111 2.64 110 2.64 127 2.71  35 2.71
                           121 2.71 128 2.71 124 2.71 122 2.71
 124  0.750  0.083  0.214- 137 2.59 135 2.59 136 2.59 112 2.64 113 2.64 111 2.64 180 2.71 125 2.71
                           122 2.71 126 2.71 123 2.71 128 2.71
 125  0.917  1.000  0.214-  37 2.59 192 2.59 137 2.59 168 2.64 113 2.64  13 2.64 180 2.71 124 2.71
                           126 2.71  79 2.71  25 2.71  81 2.71
 126  0.833  0.167  0.214- 138 2.59 137 2.59 142 2.59 113 2.64 114 2.64 118 2.64  25 2.71 125 2.71
                           131 2.71 124 2.71 128 2.71 130 2.72
 127  0.500  0.333  0.213-  48 2.58 140 2.59 139 2.59 116 2.64 115 2.64  24 2.64  77 2.71 123 2.71
                           128 2.71  35 2.71 129 2.71  36 2.71
 128  0.667  0.250  0.214- 140 2.59 135 2.59 142 2.59 116 2.64 118 2.64 111 2.64 130 2.71 127 2.71
                           129 2.71 123 2.71 126 2.71 124 2.71
 129  0.583  0.417  0.214- 181 2.58 141 2.59 140 2.59 117 2.64 157 2.64 116 2.64 130 2.71 170 2.71
                           128 2.71 127 2.71  77 2.71 169 2.71
 130  0.750  0.333  0.214- 141 2.59 143 2.59 142 2.59 117 2.64 118 2.64 119 2.64 129 2.71 170 2.71
                           128 2.71 132 2.71 131 2.71 126 2.72
 131  0.917  0.250  0.214- 143 2.58 138 2.59  43 2.59 114 2.64 119 2.64  19 2.64  25 2.71 126 2.71
                            27 2.71 132 2.71 130 2.71  31 2.72
 132  0.833  0.417  0.214- 184 2.58 143 2.59 144 2.59 160 2.64 119 2.64 120 2.64 172 2.71 170 2.71
                           130 2.71 173 2.71 131 2.71  31 2.72
 133  0.500  0.000  0.316- 121 2.58  29 2.59 177 2.59  42 2.70  41 2.71 188 2.71  96 2.71 134 2.71
                           189 2.71
 134  0.583  0.083  0.316- 123 2.59 121 2.59 122 2.59 139 2.70  42 2.70 135 2.71 133 2.71 189 2.71
                           136 2.71
 135  0.667  0.167  0.317- 123 2.59 128 2.59 124 2.59 139 2.70 142 2.71 140 2.71 137 2.71 134 2.71
                           136 2.71
 136  0.750  1.000  0.317- 180 2.59 124 2.59 122 2.59 192 2.71 137 2.71 191 2.71 189 2.71 135 2.71
                           134 2.71
 137  0.833  0.083  0.317- 126 2.59 124 2.59 125 2.59 138 2.71 192 2.71 142 2.71 136 2.71 135 2.71
                            37 2.71
 138  0.917  0.167  0.316-  25 2.59 126 2.59 131 2.59 143 2.71 137 2.71  38 2.71 142 2.71  37 2.71
                            43 2.71
 139  0.501  0.249  0.316- 123 2.58  35 2.59 127 2.59 134 2.70 135 2.70 140 2.71  42 2.71  47 2.72
                            48 2.72
 140  0.583  0.333  0.317- 128 2.59 129 2.59 127 2.59 141 2.71  48 2.71 142 2.71 135 2.71 139 2.71
                           181 2.72
 141  0.667  0.416  0.317- 130 2.59 129 2.59 170 2.59 142 2.71 140 2.71 143 2.71 181 2.72 184 2.72
                           182 2.72
 142  0.750  0.250  0.317- 128 2.59 130 2.59 126 2.59 141 2.71 135 2.71 143 2.71 140 2.71 137 2.71
                           138 2.71
 143  0.833  0.333  0.316- 131 2.58 132 2.59 130 2.59 184 2.71 138 2.71 142 2.71  43 2.71 141 2.71
                           144 2.72
 144  0.917  0.417  0.316- 173 2.58  31 2.59 132 2.59  44 2.70 184 2.71  85 2.71 185 2.71  43 2.71
                           143 2.72
 145  0.500  0.583  0.000- 157 2.65  66 2.65 158 2.65 105 2.71  53 2.71  54 2.71 146 2.71  59 2.71
                           147 2.71
 146  0.667  0.500  0.000- 160 2.65 117 2.65 158 2.65 108 2.71 148 2.71 105 2.71 145 2.71 147 2.71
                           106 2.71
 147  0.583  0.667  0.000- 159 2.65 163 2.65 158 2.65 151 2.71 152 2.71 148 2.71  59 2.71 146 2.71
                           145 2.71
 148  0.750  0.583  0.000- 160 2.65 161 2.65 159 2.65 108 2.71 146 2.71 147 2.71 149 2.71 152 2.71
                           150 2.71
 149  0.917  0.500  0.000-  61 2.65 120 2.65 161 2.65  49 2.71   9 2.71 148 2.71 108 2.71 150 2.71
                             7 2.71
 150  0.833  0.667  0.000- 162 2.65 166 2.65 161 2.65 154 2.71 155 2.71  49 2.71 152 2.71 149 2.71
                           148 2.71
 151  0.500  0.833  0.000- 164 2.65 163 2.65  72 2.65 147 2.71 152 2.71 153 2.71  59 2.71   5 2.71
                            60 2.71
 152  0.667  0.750  0.000- 159 2.65 164 2.65 166 2.65 147 2.71 151 2.71 154 2.71 150 2.71 148 2.71
                           153 2.71
 153  0.583  0.917  0.000- 109 2.65 165 2.65 164 2.65  97 2.71   5 2.71 151 2.71  98 2.71 152 2.71
                           154 2.71
 154  0.750  0.833  0.000- 167 2.65 166 2.65 165 2.65 150 2.71 155 2.71 156 2.71 152 2.71  98 2.71
                           153 2.71
 155  0.917  0.750  0.000-  67 2.65 162 2.65 167 2.65  55 2.71  51 2.71 150 2.71 154 2.71  49 2.71
                           156 2.71
 156  0.833  0.917  0.000- 112 2.65 168 2.65 167 2.65 100 2.71  98 2.71  55 2.71 154 2.71 101 2.71
                           155 2.71
 157  0.500  0.500  0.107- 129 2.64  77 2.64 169 2.65 145 2.65 105 2.65  53 2.65 158 2.71 117 2.71
                            24 2.71  65 2.71 116 2.71  66 2.71
 158  0.583  0.583  0.107- 169 2.64 170 2.64 171 2.65 146 2.65 145 2.65 147 2.65 117 2.71 157 2.71
                           160 2.71  66 2.71 159 2.71 163 2.71
 159  0.667  0.667  0.107- 172 2.64 176 2.64 171 2.64 147 2.65 152 2.65 148 2.65 164 2.71 163 2.71
                           158 2.71 166 2.71 160 2.71 161 2.71
 160  0.750  0.500  0.107- 172 2.64 132 2.64 170 2.64 146 2.65 108 2.65 148 2.65 117 2.71 158 2.71
                           161 2.71 120 2.71 159 2.71 119 2.71
 161  0.833  0.583  0.107- 174 2.64 173 2.64 172 2.64 149 2.65 148 2.65 150 2.65 120 2.71  61 2.71
                           162 2.71 160 2.71 166 2.71 159 2.71
 162  0.917  0.667  0.107- 174 2.64  73 2.64 179 2.64 150 2.65 155 2.65  49 2.65 167 2.71  67 2.71
                           166 2.71  62 2.71 161 2.71  61 2.71
 163  0.500  0.750  0.107- 175 2.64  83 2.64 171 2.64 151 2.65 147 2.65  59 2.65  66 2.71 164 2.71
                           159 2.71  71 2.71  72 2.71 158 2.71
 164  0.583  0.833  0.107- 177 2.64 175 2.64 176 2.64 151 2.65 152 2.65 153 2.65 159 2.71 163 2.71
                            72 2.71 166 2.71 109 2.71 165 2.71
 165  0.667  0.917  0.107- 177 2.64 122 2.64 178 2.64  98 2.65 153 2.65 154 2.65 110 2.71 109 2.71
                           167 2.71 112 2.71 166 2.71 164 2.71
 166  0.750  0.750  0.107- 174 2.64 176 2.64 178 2.64 154 2.65 150 2.65 152 2.65 167 2.71 162 2.71
                           159 2.71 164 2.71 161 2.71 165 2.71
 167  0.833  0.833  0.107- 179 2.64 178 2.64 180 2.64 154 2.65 155 2.65 156 2.65 162 2.71  67 2.71
                           166 2.71 165 2.71 112 2.71 168 2.71
 168  0.917  0.917  0.107- 125 2.64  79 2.64 180 2.64 101 2.65  55 2.65 156 2.65 113 2.71 112 2.71
                            13 2.71  68 2.71  67 2.71 167 2.71
 169  0.500  0.584  0.214- 181 2.58 182 2.59  90 2.59 158 2.64  66 2.64 157 2.65  83 2.71 170 2.71
                            78 2.71 171 2.71 129 2.71  77 2.72
 170  0.667  0.500  0.214- 182 2.59 141 2.59 184 2.59 117 2.64 158 2.64 160 2.64 129 2.71 130 2.71
                           132 2.71 169 2.71 172 2.71 171 2.72
 171  0.583  0.667  0.214- 182 2.59 187 2.59 183 2.59 163 2.64 159 2.64 158 2.65 175 2.71  83 2.71
                           169 2.71 176 2.71 172 2.71 170 2.72
 172  0.750  0.583  0.214- 185 2.59 183 2.59 184 2.60 160 2.64 161 2.64 159 2.64 173 2.71 132 2.71
                           174 2.71 170 2.71 171 2.71 176 2.71
 173  0.916  0.500  0.213- 185 2.58  85 2.58 144 2.58 161 2.64 120 2.64  61 2.64 172 2.71 174 2.71
                           132 2.71  31 2.71  73 2.72  33 2.72
 174  0.833  0.667  0.213- 185 2.58 190 2.59 186 2.59 161 2.64 162 2.64 166 2.64 173 2.71 176 2.71
                           172 2.71  73 2.71 178 2.71 179 2.71
 175  0.500  0.833  0.213- 187 2.58 188 2.59  96 2.59 164 2.64  72 2.64 163 2.64 171 2.71  83 2.71
                           177 2.71  29 2.71  84 2.71 176 2.71
 176  0.667  0.750  0.214- 183 2.58 188 2.59 190 2.59 166 2.64 164 2.64 159 2.64 177 2.71 178 2.71
                           171 2.71 174 2.71 175 2.71 172 2.71
 177  0.583  0.917  0.213- 188 2.58 189 2.59 133 2.59 165 2.64 164 2.64 109 2.64 176 2.71 178 2.71
                           122 2.71 175 2.71  29 2.72 121 2.72
 178  0.750  0.833  0.214- 190 2.58 189 2.59 191 2.59 167 2.64 166 2.64 165 2.64 176 2.71 177 2.71
                           122 2.71 180 2.71 174 2.71 179 2.71
 179  0.917  0.750  0.214- 191 2.59 186 2.59  91 2.59  67 2.64 167 2.64 162 2.64  75 2.71  79 2.71
                            73 2.71 180 2.71 178 2.71 174 2.71
 180  0.833  0.917  0.214- 192 2.59 136 2.59 191 2.59 168 2.64 112 2.64 167 2.64 124 2.71 125 2.71
                           122 2.71 179 2.71  79 2.71 178 2.71
 181  0.500  0.500  0.316- 169 2.58  77 2.58 129 2.58  48 2.71  89 2.71 182 2.71 141 2.72 140 2.72
                            90 2.72
 182  0.583  0.584  0.317- 171 2.59 169 2.59 170 2.59 181 2.71  90 2.72 187 2.72 183 2.72 184 2.72
                           141 2.72
 183  0.667  0.667  0.317- 176 2.58 171 2.59 172 2.59 188 2.71 190 2.71 182 2.72 185 2.72 187 2.72
                           184 2.73
 184  0.751  0.499  0.317- 132 2.58 170 2.59 172 2.60 143 2.71 144 2.71 141 2.72 185 2.72 182 2.72
                           183 2.73
 185  0.834  0.583  0.316- 173 2.58 174 2.58 172 2.59  85 2.70 186 2.71 144 2.71 184 2.72 183 2.72
                           190 2.72
 186  0.917  0.667  0.316- 179 2.59  73 2.59 174 2.59 185 2.71 190 2.71  86 2.71 191 2.71  85 2.71
                            91 2.71
 187  0.499  0.751  0.316- 175 2.58  83 2.58 171 2.59  96 2.70  95 2.70 188 2.71  90 2.71 182 2.72
                           183 2.72
 188  0.583  0.834  0.316- 177 2.58 176 2.59 175 2.59 183 2.71 133 2.71 189 2.71  96 2.71 187 2.71
                           190 2.72
 189  0.667  0.917  0.316- 178 2.59 177 2.59 122 2.59 190 2.70 188 2.71 136 2.71 191 2.71 134 2.71
                           133 2.71
 190  0.750  0.750  0.316- 178 2.58 174 2.59 176 2.59 191 2.70 189 2.70 186 2.71 183 2.71 188 2.72
                           185 2.72
 191  0.833  0.833  0.317- 179 2.59 178 2.59 180 2.59 190 2.70 186 2.71  91 2.71 136 2.71 192 2.71
                           189 2.71
 192  0.917  0.917  0.317- 125 2.59 180 2.59  79 2.59  37 2.71 137 2.71  91 2.71 136 2.71  92 2.71
                           191 2.71
 193  0.219  0.307  0.524- 219 1.10
 194  0.225  0.308  0.436- 219 1.11
 195  0.127  0.353  0.475- 219 1.10
 196  0.154  0.461  0.528- 220 1.10
 197  0.152  0.466  0.440- 220 1.12
 198  0.303  0.387  0.434- 221 1.12
 199  0.312  0.368  0.520- 221 1.11
 200  0.247  0.523  0.541- 222 1.10
 201  0.242  0.538  0.454- 222 1.11
 202  0.395  0.447  0.446- 223 1.11
 203  0.401  0.431  0.533- 223 1.10
 204  0.343  0.586  0.549- 224 1.10
 205  0.339  0.596  0.461- 224 1.11
 206  0.493  0.494  0.456- 225 1.11
 207  0.495  0.498  0.545- 225 1.10
 208  0.435  0.654  0.536- 226 1.11
 209  0.438  0.644  0.448- 226 1.11
 210  0.592  0.552  0.452- 227 1.11
 211  0.590  0.565  0.540- 227 1.10
 212  0.520  0.721  0.521- 228 1.11
 213  0.529  0.703  0.434- 228 1.12
 214  0.680  0.627  0.441- 229 1.12
 215  0.678  0.633  0.529- 229 1.10
 216  0.601  0.785  0.435- 230 1.12
 217  0.700  0.745  0.473- 230 1.10
 218  0.608  0.788  0.523- 230 1.10
 219  0.189  0.345  0.480- 195 1.10 193 1.10 194 1.11 220 1.52
 220  0.188  0.426  0.483- 196 1.10 197 1.12 221 1.52 219 1.52
 221  0.274  0.415  0.483- 199 1.11 198 1.12 222 1.52 220 1.52
 222  0.277  0.493  0.494- 200 1.10 201 1.11 221 1.52 223 1.52
 223  0.365  0.477  0.494- 203 1.10 202 1.11 224 1.52 222 1.52
 224  0.373  0.553  0.502- 204 1.10 205 1.11 223 1.52 225 1.53
 225  0.462  0.534  0.500- 207 1.10 206 1.11 226 1.52 224 1.53
 226  0.469  0.611  0.495- 208 1.11 209 1.11 225 1.52 227 1.52
 227  0.557  0.595  0.493- 211 1.10 210 1.11 228 1.52 226 1.52
 228  0.559  0.675  0.483- 212 1.11 213 1.12 229 1.52 227 1.52
 229  0.644  0.666  0.484- 215 1.10 214 1.12 228 1.52 230 1.52
 230  0.639  0.750  0.479- 217 1.10 218 1.10 216 1.12 229 1.52
 
  LATTYP: Found a hexagonal cell.
 ALAT       =    18.7899500611
 C/A-ratio  =     1.0643987842
  
  Lattice vectors:
  
 A1 = (   9.3949750305, -16.2725740888,   0.0000000000)
 A2 = ( -18.7899500611,   0.0000000000,   0.0000000000)
 A3 = (   0.0000000000,   0.0000000000, -20.0000000000)


Analysis of symmetry for initial positions (statically):
=====================================================================
 Subroutine PRICEL returns:
 Original cell was already a primitive cell.
 

 Routine SETGRP: Setting up the symmetry group for a 
 hexagonal supercell.


 Subroutine GETGRP returns: Found  1 space group operations
 (whereof  1 operations were pure point group operations)
 out of a pool of 24 trial point group operations.


The static configuration has the point symmetry C_1 .


Analysis of symmetry for dynamics (positions and initial velocities):
=====================================================================
 Subroutine PRICEL returns:
 Original cell was already a primitive cell.
 

 Routine SETGRP: Setting up the symmetry group for a 
 hexagonal supercell.


 Subroutine GETGRP returns: Found  1 space group operations
 (whereof  1 operations were pure point group operations)
 out of a pool of 24 trial point group operations.


The dynamic configuration has the point symmetry C_1 .


Analysis of constrained symmetry for selective dynamics:
=====================================================================
 Subroutine PRICEL returns:
 Original cell was already a primitive cell.
 

 Routine SETGRP: Setting up the symmetry group for a 
 hexagonal supercell.


 Subroutine GETGRP returns: Found  1 space group operations
 (whereof  1 operations were pure point group operations)
 out of a pool of 24 trial point group operations.


The constrained configuration has the point symmetry C_1 .


 Subroutine INISYM returns: Found  1 space group operations
 (whereof  1 operations are pure point group operations),
 and found     1 'primitive' translations

 
 
 KPOINTS: K-POINTS                                

Automatic generation of k-mesh.
Space group operators:
 irot       det(A)        alpha          n_x          n_y          n_z        tau_x        tau_y        tau_z
    1     1.000000     0.000000     1.000000     0.000000     0.000000     0.000000     0.000000     0.000000
 
 Subroutine IBZKPT returns following result:
 ===========================================
 
 Found      5 irreducible k-points:
 
 Following reciprocal coordinates:
            Coordinates               Weight
  0.000000  0.000000  0.000000      1.000000
  0.333333  0.000000  0.000000      2.000000
  0.000000  0.333333  0.000000      2.000000
  0.333333  0.333333  0.000000      2.000000
 -0.333333  0.333333  0.000000      2.000000
 
 Following cartesian coordinates:
            Coordinates               Weight
  0.000000  0.000000  0.000000      1.000000
  0.017740 -0.010242  0.000000      2.000000
  0.000000  0.020484  0.000000      2.000000
  0.017740  0.010242  0.000000      2.000000
 -0.017740  0.030727  0.000000      2.000000
 


--------------------------------------------------------------------------------------------------------




 Dimension of arrays:
   k-points           NKPTS =      5   k-points in BZ     NKDIM =      5   number of bands    NBANDS=   1008
   number of dos      NEDOS =    301   number of ions     NIONS =    230
   non local maximal  LDIM  =      6   non local SUM 2l+1 LMDIM =     18
   total plane-waves  NPLWV = ******
   max r-space proj   IRMAX =   2490   max aug-charges    IRDMAX=  11670
   dimension x,y,z NGX =    98 NGY =   98 NGZ =  108
   dimension x,y,z NGXF=   196 NGYF=  196 NGZF=  216
   support grid    NGXF=   196 NGYF=  196 NGZF=  216
   ions per type =             192  26  12
   NGX,Y,Z   is equivalent  to a cutoff of   8.67,  8.67,  8.98 a.u.
   NGXF,Y,Z  is equivalent  to a cutoff of  17.34, 17.34, 17.95 a.u.

 SYSTEM =  x                                       
 POSCAR =  Ru  H  C                                

 Startparameter for this run:
   NWRITE =      0    write-flag & timer
   PREC   = normal    normal or accurate (medium, high low for compatibility)
   ISTART =      0    job   : 0-new  1-cont  2-samecut
   ICHARG =      2    charge: 1-file 2-atom 10-const
   ISPIN  =      1    spin polarized calculation?
   LNONCOLLINEAR =      F non collinear calculations
   LSORBIT =      F    spin-orbit coupling
   INIWAV =      1    electr: 0-lowe 1-rand  2-diag
   LASPH  =      F    aspherical Exc in radial PAW
   METAGGA=      F    non-selfconsistent MetaGGA calc.

 Electronic Relaxation 1
   ENCUT  =  450.0 eV  33.07 Ry    5.75 a.u.  32.50 32.50 34.59*2*pi/ulx,y,z
   ENINI  =  450.0     initial cutoff
   ENAUG  =  644.9 eV  augmentation charge cutoff
   NELM   =     50;   NELMIN=  5; NELMDL= -7     # of ELM steps 
   EDIFF  = 0.1E-04   stopping-criterion for ELM
   LREAL  =      T    real-space projection
   NLSPLINE    = F    spline interpolate recip. space projectors
   LCOMPAT=      F    compatible to vasp.4.4
   GGA_COMPAT  = T    GGA compatible to vasp.4.4-vasp.4.6
   LMAXPAW     = -100 max onsite density
   LMAXMIX     =    2 max onsite mixed and CHGCAR
   VOSKOWN=      0    Vosko Wilk Nusair interpolation
   ROPT   =   -0.00050  -0.00050  -0.00050
 Ionic relaxation
   EDIFFG = -.2E-01   stopping-criterion for IOM
   NSW    =    400    number of steps for IOM
   NBLOCK =      1;   KBLOCK =    400    inner block; outer block 
   IBRION =      2    ionic relax: 0-MD 1-quasi-New 2-CG
   NFREE  =      2    steps in history (QN), initial steepest desc. (CG)
   ISIF   =      2    stress and relaxation
   IWAVPR =     11    prediction:  0-non 1-charg 2-wave 3-comb
   ISYM   =      2    0-nonsym 1-usesym 2-fastsym
   LCORR  =      T    Harris-Foulkes like correction to forces

   POTIM  = 0.1500    time-step for ionic-motion
   TEIN   =    0.0    initial temperature
   TEBEG  =    0.0;   TEEND  =   0.0 temperature during run
   SMASS  =  -3.00    Nose mass-parameter (am)
   estimated Nose-frequenzy (Omega)   =  0.10E-29 period in steps =****** mass=  -0.807E-26a.u.
   SCALEE = 1.0000    scale energy and forces
   NPACO  =    256;   APACO  = 16.0  distance and # of slots for P.C.
   PSTRESS=    0.0 pullay stress

  Mass of Ions in am
   POMASS = 101.07  1.00 12.01
  Ionic Valenz
   ZVAL   =   8.00  1.00  4.00
  Atomic Wigner-Seitz radii
   RWIGS  =  -1.00 -1.00 -1.00
  virtual crystal weights 
   VCA    =   1.00  1.00  1.00
   NELECT =    1610.0000    total number of electrons
   NUPDOWN=      -1.0000    fix difference up-down

 DOS related values:
   EMIN   =  10.00;   EMAX   =-10.00  energy-range for DOS
   EFERMI =   0.00
   ISMEAR =     0;   SIGMA  =   0.03  broadening in eV -4-tet -1-fermi 0-gaus

 Electronic relaxation 2 (details)
   IALGO  =     68    algorithm
   LDIAG  =      T    sub-space diagonalisation (order eigenvalues)
   LSUBROT=      F    optimize rotation matrix (better conditioning)
   TURBO    =      0    0=normal 1=particle mesh
   IRESTART =      0    0=no restart 2=restart with 2 vectors
   NREBOOT  =      0    no. of reboots
   NMIN     =      0    reboot dimension
   EREF     =   0.00    reference energy to select bands
   IMIX   =      4    mixing-type and parameters
     AMIX     =   0.40;   BMIX     =  1.00
     AMIX_MAG =   1.60;   BMIX_MAG =  1.00
     AMIN     =   0.10
     WC   =   100.;   INIMIX=   1;  MIXPRE=   1;  MAXMIX= -45

 Intra band minimization:
   WEIMIN = 0.0010     energy-eigenvalue tresh-hold
   EBREAK =  0.25E-08  absolut break condition
   DEPER  =   0.30     relativ break condition  

   TIME   =   0.40     timestep for ELM

  volume/ion in A,a.u.               =      26.59       179.42
  Fermi-wavevector in a.u.,A,eV,Ry     =   1.049251  1.982797 14.979037  1.100928
  Thomas-Fermi vector in A             =   2.184206
 
 Write flags
   LWAVE        =      F    write WAVECAR
   LDOWNSAMPLE  =      F    k-point downsampling of WAVECAR
   LCHARG       =      F    write CHGCAR
   LVTOT        =      F    write LOCPOT, total local potential
   LVHAR        =      F    write LOCPOT, Hartree potential only
   LELF         =      F    write electronic localiz. function (ELF)
   LORBIT       =      0    0 simple, 1 ext, 2 COOP (PROOUT), +10 PAW based schemes


 Dipole corrections
   LMONO  =      F    monopole corrections only (constant potential shift)
   LDIPOL =      T    correct potential (dipole corrections)
   IDIPOL =      3    1-x, 2-y, 3-z, 4-all directions 
   EPSILON=  1.0000000 bulk dielectric constant

 Exchange correlation treatment:
   GGA     =    PE    GGA type
   LEXCH   =     8    internal setting for exchange type
   VOSKOWN=      0    Vosko Wilk Nusair interpolation
   LHFCALC =     F    Hartree Fock is set to
   LHFONE  =     F    Hartree Fock one center treatment
   AEXX    =    0.0000 exact exchange contribution

 Linear response parameters
   LEPSILON=     F    determine dielectric tensor
   LRPA    =     F    only Hartree local field effects (RPA)
   LNABLA  =     F    use nabla operator in PAW spheres
   LVEL    =     F    velocity operator in full k-point grid
   LINTERFAST=   F  fast interpolation
   KINTER  =     0    interpolate to denser k-point grid
   CSHIFT  =0.1000    complex shift for real part using Kramers Kronig
   OMEGAMAX=  -1.0    maximum frequency
   DEG_THRESHOLD= 0.2000000E-02 threshold for treating states as degnerate
   RTIME   =   -0.100 relaxation time in fs
  (WPLASMAI=    0.000 imaginary part of plasma frequency in eV, 0.658/RTIME)
   DFIELD  = 0.0000000 0.0000000 0.0000000 field for delta impulse in time
 
 Orbital magnetization related:
   ORBITALMAG=     F  switch on orbital magnetization
   LCHIMAG   =     F  perturbation theory with respect to B field
   DQ        =  0.001000  dq finite difference perturbation B field
   LLRAUG    =     F  two centre corrections for induced B field



--------------------------------------------------------------------------------------------------------


 conjugate gradient relaxation of ions
   using selective dynamics as specified on POSCAR
   WARNING: If single coordinates had been selected the selection of coordinates
            is made according to the corresponding   d i r e c t   coordinates!
            Don't support selection of single cartesian coordinates -- sorry ...
  !
 charge density and potential will be updated during run
 non-spin polarized calculation
 RMM-DIIS sequential band-by-band and
  variant of blocked Davidson during initial phase
 perform sub-space diagonalisation
    before iterative eigenvector-optimisation
 modified Broyden-mixing scheme, WC =      100.0
 initial mixing is a Kerker type mixing with AMIX =  0.4000 and BMIX =      1.0000
 Hartree-type preconditioning will be used
 using additional bands          203
 real space projection scheme for non local part
 use partial core corrections
 calculate Harris-corrections to forces 
   (improved forces if not selfconsistent)
 use gradient corrections 
 use of overlap-Matrix (Vanderbilt PP)
 Gauss-broadening in eV      SIGMA  =   0.03


--------------------------------------------------------------------------------------------------------


  energy-cutoff  :      450.00
  volume of cell :     6115.22
      direct lattice vectors                 reciprocal lattice vectors
    18.789950061  0.000000000  0.000000000     0.053219939 -0.030726546  0.000000000
     9.394975031 16.272574089  0.000000000     0.000000000  0.061453092  0.000000000
     0.000000000  0.000000000 20.000000000     0.000000000  0.000000000  0.050000000

  length of vectors
    18.789950061 18.789950061 20.000000000     0.061453092  0.061453092  0.050000000


 
 k-points in units of 2pi/SCALE and weight: K-POINTS                                
   0.00000000  0.00000000  0.00000000       0.111
   0.01773998 -0.01024218  0.00000000       0.222
   0.00000000  0.02048436  0.00000000       0.222
   0.01773998  0.01024218  0.00000000       0.222
  -0.01773998  0.03072655  0.00000000       0.222
 
 k-points in reciprocal lattice and weights: K-POINTS                                
   0.00000000  0.00000000  0.00000000       0.111
   0.33333333  0.00000000  0.00000000       0.222
   0.00000000  0.33333333  0.00000000       0.222
   0.33333333  0.33333333  0.00000000       0.222
  -0.33333333  0.33333333  0.00000000       0.222
 
 position of ions in fractional coordinates (direct lattice) 
   0.00000000  0.08333333  0.00000000
   0.16666667  0.00000000  0.00000000
   0.08333333  0.16666667  0.00000000
   0.25000000  0.08333333  0.00000000
   0.41666667  0.00000000  0.00000000
   0.33333333  0.16666667  0.00000000
   1.00000000  0.33333333  0.00000000
   0.16666667  0.25000000  0.00000000
   0.08333333  0.41666667  0.00000000
   0.25000000  0.33333333  0.00000000
   0.41666667  0.25000000  0.00000000
   0.33333333  0.41666667  0.00000000
   0.00000000  0.00000000  0.10719781
   0.08333333  0.08333333  0.10719781
   0.16666667  0.16666667  0.10719781
   0.25000000  0.00000000  0.10719781
   0.33333333  0.08333333  0.10719781
   0.41666667  0.16666667  0.10719781
   1.00000000  0.25000000  0.10719781
   0.08333333  0.33333333  0.10719781
   0.16666667  0.41666667  0.10719781
   0.25000000  0.25000000  0.10719781
   0.33333333  0.33333333  0.10719781
   0.41666667  0.41666667  0.10719781
   0.99995318  0.08337041  0.21350423
   0.16663580  0.99993354  0.21352178
   0.08334011  0.16661337  0.21355305
   0.25000351  0.08329083  0.21344257
   0.41655589  0.00003207  0.21347816
   0.33337439  0.16662891  0.21354980
   0.00008990  0.33333888  0.21349016
   0.16661979  0.24995295  0.21356871
   0.08345449  0.41654895  0.21344976
   0.25002547  0.33325592  0.21374453
   0.41670409  0.24995056  0.21349357
   0.33326405  0.41662844  0.21373857
   0.00003149  0.99989572  0.31640558
   0.08328759  0.08325985  0.31647254
   0.16644900  0.16614997  0.31636258
   0.24991722  0.00008415  0.31663409
   0.33352726  0.08302051  0.31638328
   0.41732069  0.16596793  0.31629485
   0.00003930  0.24992556  0.31650438
   0.08258887  0.33352316  0.31618097
   0.16609987  0.41714063  0.31661182
   0.24995874  0.24918510  0.31685442
   0.33367921  0.33294343  0.31684132
   0.41700594  0.41649389  0.31637813
   0.00000000  0.58333333  0.00000000
   0.16666667  0.50000000  0.00000000
   0.08333333  0.66666667  0.00000000
   0.25000000  0.58333333  0.00000000
   0.41666667  0.50000000  0.00000000
   0.33333333  0.66666667  0.00000000
   1.00000000  0.83333333  0.00000000
   0.16666667  0.75000000  0.00000000
   0.08333333  0.91666667  0.00000000
   0.25000000  0.83333333  0.00000000
   0.41666667  0.75000000  0.00000000
   0.33333333  0.91666667  0.00000000
   0.00000000  0.50000000  0.10719781
   0.08333333  0.58333333  0.10719781
   0.16666667  0.66666667  0.10719781
   0.25000000  0.50000000  0.10719781
   0.33333333  0.58333333  0.10719781
   0.41666667  0.66666667  0.10719781
   1.00000000  0.75000000  0.10719781
   0.08333333  0.83333333  0.10719781
   0.16666667  0.91666667  0.10719781
   0.25000000  0.75000000  0.10719781
   0.33333333  0.83333333  0.10719781
   0.41666667  0.91666667  0.10719781
   0.00006429  0.58340524  0.21340141
   0.16666163  0.49994023  0.21361801
   0.08330110  0.66668213  0.21359491
   0.25005408  0.58321133  0.21365999
   0.41665196  0.49987441  0.21361750
   0.33341997  0.66658333  0.21353461
   0.00002929  0.83335976  0.21354375
   0.16666444  0.75000288  0.21358370
   0.08342119  0.91658182  0.21348874
   0.24993175  0.83333730  0.21356610
   0.41673013  0.74994604  0.21353862
   0.33330741  0.91671976  0.21355458
   0.99982831  0.50005901  0.31630449
   0.08317186  0.58348553  0.31644894
   0.16659208  0.66670957  0.31655080
   0.24987513  0.50028285  0.31676572
   0.33328974  0.58336275  0.31656565
   0.41620517  0.66720283  0.31642547
   0.00005617  0.75008388  0.31663983
   0.08332249  0.83333558  0.31652913
   0.16666710  0.91667554  0.31651199
   0.24996246  0.75004970  0.31662458
   0.33334351  0.83333563  0.31654868
   0.41668137  0.91665652  0.31647378
   0.50000000  0.08333333  0.00000000
   0.66666667  0.00000000  0.00000000
   0.58333333  0.16666667  0.00000000
   0.75000000  0.08333333  0.00000000
   0.91666667  0.00000000  0.00000000
   0.83333333  0.16666667  0.00000000
   0.50000000  0.33333333  0.00000000
   0.66666667  0.25000000  0.00000000
   0.58333333  0.41666667  0.00000000
   0.75000000  0.33333333  0.00000000
   0.91666667  0.25000000  0.00000000
   0.83333333  0.41666667  0.00000000
   0.50000000  0.00000000  0.10719781
   0.58333333  0.08333333  0.10719781
   0.66666667  0.16666667  0.10719781
   0.75000000  0.00000000  0.10719781
   0.83333333  0.08333333  0.10719781
   0.91666667  0.16666667  0.10719781
   0.50000000  0.25000000  0.10719781
   0.58333333  0.33333333  0.10719781
   0.66666667  0.41666667  0.10719781
   0.75000000  0.25000000  0.10719781
   0.83333333  0.33333333  0.10719781
   0.91666667  0.41666667  0.10719781
   0.49992146  0.08347674  0.21352167
   0.66671806  0.99994228  0.21342289
   0.58331721  0.16672514  0.21360420
   0.75005242  0.08324087  0.21356942
   0.91661774  0.99998093  0.21350956
   0.83339642  0.16655505  0.21352525
   0.50005468  0.33331742  0.21341663
   0.66665052  0.25005023  0.21359037
   0.58344037  0.41667805  0.21358608
   0.74984832  0.33344307  0.21361222
   0.91661808  0.24995385  0.21354202
   0.83318243  0.41670030  0.21368101
   0.49987536  0.00012039  0.31630576
   0.58332676  0.08339409  0.31649406
   0.66672503  0.16665529  0.31654993
   0.75009058  0.99994650  0.31662013
   0.83336781  0.08329809  0.31651996
   0.91668223  0.16657120  0.31648548
   0.50062053  0.24939150  0.31644163
   0.58344224  0.33325223  0.31658040
   0.66678820  0.41631459  0.31675203
   0.75003672  0.24991498  0.31663835
   0.83341540  0.33310898  0.31647021
   0.91685752  0.41666017  0.31637962
   0.50000000  0.58333333  0.00000000
   0.66666667  0.50000000  0.00000000
   0.58333333  0.66666667  0.00000000
   0.75000000  0.58333333  0.00000000
   0.91666667  0.50000000  0.00000000
   0.83333333  0.66666667  0.00000000
   0.50000000  0.83333333  0.00000000
   0.66666667  0.75000000  0.00000000
   0.58333333  0.91666667  0.00000000
   0.75000000  0.83333333  0.00000000
   0.91666667  0.75000000  0.00000000
   0.83333333  0.91666667  0.00000000
   0.50000000  0.50000000  0.10719781
   0.58333333  0.58333333  0.10719781
   0.66666667  0.66666667  0.10719781
   0.75000000  0.50000000  0.10719781
   0.83333333  0.58333333  0.10719781
   0.91666667  0.66666667  0.10719781
   0.50000000  0.75000000  0.10719781
   0.58333333  0.83333333  0.10719781
   0.66666667  0.91666667  0.10719781
   0.75000000  0.75000000  0.10719781
   0.83333333  0.83333333  0.10719781
   0.91666667  0.91666667  0.10719781
   0.50002569  0.58350239  0.21366246
   0.66662209  0.49998291  0.21361903
   0.58330191  0.66686644  0.21373691
   0.75006285  0.58325561  0.21352285
   0.91649806  0.50010353  0.21349485
   0.83337641  0.66661310  0.21334011
   0.50000199  0.83334525  0.21342472
   0.66672149  0.75009285  0.21359603
   0.58343130  0.91658927  0.21342350
   0.75002417  0.83331890  0.21359685
   0.91673710  0.75003199  0.21355943
   0.83334486  0.91670360  0.21356562
   0.49993653  0.50015205  0.31631002
   0.58314689  0.58375866  0.31671922
   0.66671019  0.66740355  0.31666198
   0.75052458  0.49944171  0.31682093
   0.83404097  0.58305752  0.31620781
   0.91666641  0.66667966  0.31647026
   0.49933345  0.75084943  0.31639135
   0.58319549  0.83368555  0.31633331
   0.66669368  0.91663831  0.31647299
   0.75041388  0.75044892  0.31632979
   0.83343370  0.83328820  0.31653763
   0.91670297  0.91669347  0.31650093
   0.21877597  0.30674479  0.52430560
   0.22506677  0.30814994  0.43613935
   0.12678793  0.35288348  0.47508190
   0.15369636  0.46137362  0.52803676
   0.15237449  0.46575371  0.43998086
   0.30315993  0.38715678  0.43379266
   0.31238959  0.36844644  0.52036167
   0.24660612  0.52261736  0.54126531
   0.24193941  0.53817786  0.45371162
   0.39473580  0.44652092  0.44556239
   0.40115017  0.43148907  0.53291668
   0.34343971  0.58551298  0.54854823
   0.33888295  0.59646352  0.46050890
   0.49338601  0.49406409  0.45624992
   0.49541988  0.49806704  0.54462265
   0.43506871  0.65392391  0.53555907
   0.43825976  0.64388670  0.44775560
   0.59193720  0.55164374  0.45242492
   0.58950779  0.56498594  0.54022316
   0.51960371  0.72051301  0.52093332
   0.52892729  0.70251966  0.43428168
   0.68034760  0.62700456  0.44075231
   0.67816648  0.63316959  0.52877977
   0.60076838  0.78501935  0.43535742
   0.69952881  0.74461763  0.47315457
   0.60828931  0.78788002  0.52325166
   0.18866674  0.34493133  0.48000358
   0.18757990  0.42636666  0.48334056
   0.27355443  0.41516119  0.48298950
   0.27728509  0.49335553  0.49378377
   0.36537688  0.47680175  0.49365618
   0.37311919  0.55326080  0.50165699
   0.46232711  0.53395741  0.49999313
   0.46948563  0.61097598  0.49452126
   0.55731304  0.59527511  0.49346461
   0.55917417  0.67457551  0.48333599
   0.64388923  0.66642476  0.48363913
   0.63899010  0.74963837  0.47909368
 
 position of ions in cartesian coordinates  (Angst):
   0.78291459  1.35604784  0.00000000
   3.13165834  0.00000000  0.00000000
   3.13165834  2.71209568  0.00000000
   5.48040210  1.35604784  0.00000000
   7.82914586  0.00000000  0.00000000
   7.82914586  2.71209568  0.00000000
  21.92160840  5.42419136  0.00000000
   5.48040210  4.06814352  0.00000000
   5.48040210  6.78023920  0.00000000
   7.82914586  5.42419136  0.00000000
  10.17788962  4.06814352  0.00000000
  10.17788962  6.78023920  0.00000000
   0.00000000  0.00000000  2.14395612
   2.34874376  1.35604784  2.14395612
   4.69748752  2.71209568  2.14395612
   4.69748752  0.00000000  2.14395612
   7.04623127  1.35604784  2.14395612
   9.39497503  2.71209568  2.14395612
  21.13869382  4.06814352  2.14395612
   4.69748752  5.42419136  2.14395612
   7.04623127  6.78023920  2.14395612
   7.04623127  4.06814352  2.14395612
   9.39497503  5.42419136  2.14395612
  11.74371879  6.78023920  2.14395612
  19.57233323  1.35665120  4.27008463
  12.52542897 16.27149256  4.27043551
   3.13128489  2.71122842  4.27106099
   5.48006876  1.35535617  4.26885137
   7.82736577  0.00052192  4.26956329
   7.82956258  2.71148125  4.27099596
   3.13339964  5.42428164  4.26980314
   5.47907935  4.06737793  4.27137415
   5.48157269  6.77832362  4.26899521
   7.82889710  5.42293161  4.27489068
  10.17812833  4.06733900  4.26987142
  10.17622872  6.77961718  4.27477144
   9.39458699 16.27087718  6.32811165
   2.34719392  1.35485206  6.32945089
   4.68854310  2.70368763  6.32725155
   4.69672265  0.00136934  6.33268187
   7.04693615  1.35095737  6.32766557
   9.40069953  2.70072547  6.32589709
   2.34878288  4.06693227  6.33008764
   4.68528245  5.42728037  6.32361938
   7.04003416  6.78795184  6.33223640
   7.03780007  4.05488295  6.33708850
   9.39781101  5.41784667  6.33682645
  11.74847045  6.77742761  6.32756263
   5.48040210  9.49233489  0.00000000
   7.82914586  8.13628704  0.00000000
   7.82914586 10.84838273  0.00000000
  10.17788962  9.49233489  0.00000000
  12.52663337  8.13628704  0.00000000
  12.52663337 10.84838273  0.00000000
  26.61909592 13.56047841  0.00000000
  10.17788962 12.20443057  0.00000000
  10.17788962 14.91652625  0.00000000
  12.52663337 13.56047841  0.00000000
  14.87537713 12.20443057  0.00000000
  14.87537713 14.91652625  0.00000000
   4.69748752  8.13628704  2.14395612
   7.04623127  9.49233489  2.14395612
   9.39497503 10.84838273  2.14395612
   9.39497503  8.13628704  2.14395612
  11.74371879  9.49233489  2.14395612
  14.09246255 10.84838273  2.14395612
  25.83618133 12.20443057  2.14395612
   9.39497503 13.56047841  2.14395612
  11.74371879 14.91652625  2.14395612
  11.74371879 12.20443057  2.14395612
  14.09246255 13.56047841  2.14395612
  16.44120630 14.91652625  2.14395612
   5.48228554  9.49350491  4.26802815
   7.82848971  8.13531440  4.27236028
   7.82868557 10.84863443  4.27189828
  10.17775959  9.49034965  4.27319974
  12.52517718  8.13424344  4.27235000
  12.52747829 10.84702665  4.27069221
   7.82994450 13.56090850  4.27087501
  10.17787477 12.20447742  4.27167402
  10.17874337 14.91514563  4.26977471
  12.52538813 13.56054288  4.27132195
  14.87606257 12.20355248  4.27077242
  14.87538885 14.91739027  4.27109166
  23.48476589  8.13724722  6.32608987
   7.04462709  9.49481158  6.32897880
   9.39397653 10.84908085  6.33101607
   9.39528610  8.14088982  6.33531446
  11.74317605  9.49281356  6.33131295
  14.08882825 10.85710748  6.32850944
   7.04807471 12.20579546  6.33279653
   9.39479242 13.56051493  6.33058268
  11.74381039 14.91667072  6.33023971
  11.74348030 12.20523937  6.33249157
  14.09267529 13.56051577  6.33097361
  16.44138718 14.91636109  6.32947550
  10.17788962  1.35604784  0.00000000
  12.52663337  0.00000000  0.00000000
  12.52663337  2.71209568  0.00000000
  14.87537713  1.35604784  0.00000000
  17.22412089  0.00000000  0.00000000
  17.22412089  2.71209568  0.00000000
  12.52663337  5.42419136  0.00000000
  14.87537713  4.06814352  0.00000000
  14.87537713  6.78023920  0.00000000
  17.22412089  5.42419136  0.00000000
  19.57286465  4.06814352  0.00000000
  19.57286465  6.78023920  0.00000000
   9.39497503  0.00000000  2.14395612
  11.74371879  1.35604784  2.14395612
  14.09246255  2.71209568  2.14395612
  14.09246255  0.00000000  2.14395612
  16.44120630  1.35604784  2.14395612
  18.78995006  2.71209568  2.14395612
  11.74371879  4.06814352  2.14395612
  14.09246255  5.42419136  2.14395612
  16.44120630  6.78023920  2.14395612
  16.44120630  4.06814352  2.14395612
  18.78995006  5.42419136  2.14395612
  21.13869382  6.78023920  2.14395612
  10.17776109  1.35838137  4.27043342
  21.92203183 16.27163481  4.26845786
  12.52687981  2.71304722  4.27208407
  14.87549344  1.35454320  4.27138844
  26.61799746 16.27226373  4.27019126
  17.22425758  2.71027943  4.27050493
  12.52751132  5.42393234  4.26833256
  14.87554568  4.06896093  4.27180744
  14.87749529  6.78042439  4.27172153
  17.22230185  5.42597707  4.27224442
  19.57151817  4.06739250  4.27084041
  19.57034511  6.78078656  4.27362026
   9.39376403  0.00195902  6.32611527
  11.74416607  1.35703646  6.32988113
  14.09345231  2.71191058  6.33099852
  23.48863685 16.27170347  6.33240262
  16.44152288  1.35547427  6.33039922
  18.78934561  2.71054211  6.32970953
  11.74966160  4.05824166  6.32883251
  14.09374696  5.42287154  6.33160806
  16.44018210  6.77451006  6.33504053
  16.44109752  4.06676005  6.33276691
  18.78938424  5.42054049  6.32940424
  21.14221894  6.78013343  6.32759235
  14.87537713  9.49233489  0.00000000
  17.22412089  8.13628704  0.00000000
  17.22412089 10.84838273  0.00000000
  19.57286465  9.49233489  0.00000000
  21.92160840  8.13628704  0.00000000
  21.92160840 10.84838273  0.00000000
  17.22412089 13.56047841  0.00000000
  19.57286465 12.20443057  0.00000000
  19.57286465 14.91652625  0.00000000
  21.92160840 13.56047841  0.00000000
  24.27035216 12.20443057  0.00000000
  24.27035216 14.91652625  0.00000000
  14.09246255  8.13628704  2.14395612
  16.44120630  9.49233489  2.14395612
  18.78995006 10.84838273  2.14395612
  18.78995006  8.13628704  2.14395612
  21.13869382  9.49233489  2.14395612
  23.48743758 10.84838273  2.14395612
  16.44120630 12.20443057  2.14395612
  18.78995006 13.56047841  2.14395612
  21.13869382 14.91652625  2.14395612
  21.13869382 12.20443057  2.14395612
  23.48743758 13.56047841  2.14395612
  25.83618133 14.91652625  2.14395612
  14.87744807  9.49508589  4.27324926
  17.22312262  8.13600891  4.27238068
  17.22540732 10.85163349  4.27473824
  19.57331545  9.49107019  4.27045694
  21.91941303  8.13797176  4.26989696
  21.92191446 10.84751103  4.26680214
  17.22427022 13.56067225  4.26849432
  19.57476711 12.20594150  4.27192060
  19.57397825 14.91526687  4.26847003
  21.92192698 13.56024354  4.27193709
  24.27197619 12.20495120  4.27118853
  24.27091570 14.91712718  4.27131248
  14.09269850  8.13876123  6.32620042
  16.44169904  9.49925604  6.33438445
  18.79769086 10.86037374  6.33323953
  18.79456187  8.12720224  6.33641867
  21.14939909  9.48784671  6.32415618
  23.48755491 10.84859420  6.32940520
  16.43666233 12.21825304  6.32782703
  18.79066901 13.56620985  6.32666617
  21.13893505 14.91606477  6.32945988
  21.15068812 12.21173560  6.32659579
  23.48889932 13.55974389  6.33075251
  25.83711531 14.91696238  6.33001858
   6.99264918  4.99152726 10.48611193
   7.12405428  5.01439268  8.72278691
   5.69767034  5.74232252  9.50163809
   7.22254052  7.50773647 10.56073514
   7.23885357  7.57901181  8.79961720
   9.33368831  6.30003744  8.67585327
   9.33132996  5.99557195 10.40723345
   9.54369374  8.50432964 10.82530630
   9.60219702  8.75753907  9.07423240
  11.61211899  7.26604482  8.91124775
  11.59142060  7.02143778 10.65833363
  11.95409483  9.52780337 10.97096466
  11.97135365  9.70599683  9.21017801
  13.91241835  8.03969454  9.12499844
  13.98824212  8.10483273 10.89245309
  14.31851810 10.64102525 10.71118141
  14.28417849 10.47769411  8.95511201
  16.30514957  8.97666358  9.04849842
  16.38485078  9.19377560 10.80446321
  16.53252943 11.72460128 10.41866636
  16.53867215 11.43180329  8.68563354
  18.67438960 10.20297822  8.81504624
  18.69132678 10.30329904 10.57559531
  18.66364500 12.77428561  8.70714831
  20.13977537 12.11684553  9.46309141
  18.83183889 12.82083604 10.46503311
   6.78565986  5.61292067  9.60007156
   7.53032101  6.93808301  9.66681114
   9.04050306  6.75574124  9.65978995
   9.84523594  8.02816442  9.87567547
  11.34495378  7.75879178  9.87312353
  12.20876227  9.00297729 10.03313989
  13.70361981  8.68886145  9.99986269
  14.56171566  9.94215195  9.89042526
  16.06447902  9.68665836  9.86929223
  16.84447479 10.97707993  9.66671986
  18.35969046 10.84444633  9.67278252
  19.04942578 12.19854594  9.58187352
 


--------------------------------------------------------------------------------------------------------


 k-point  1 :   0.0000 0.0000 0.0000  plane waves:  132693
 k-point  2 :   0.3333 0.0000 0.0000  plane waves:  132620
 k-point  3 :   0.0000 0.3333 0.0000  plane waves:  132620
 k-point  4 :   0.3333 0.3333 0.0000  plane waves:  132620
 k-point  5 :  -0.3333 0.3333 0.0000  plane waves:  132456

 maximum and minimum number of plane-waves per node :    132693   132456

 maximum number of plane-waves:    132693
 maximum index in each direction: 
   IXMAX=   32   IYMAX=   32   IZMAX=   34
   IXMIN=  -32   IYMIN=  -32   IZMIN=  -34


 serial   3D FFT for wavefunctions
 parallel 3D FFT for charge:
    minimum data exchange during FFTs selected (reduces bandwidth)


 total amount of memory used by VASP MPI-rank0   413296. kBytes
=======================================================================

   base      :      30000. kBytes
   nonlr-proj:      84151. kBytes
   fftplans  :      11107. kBytes
   grid      :      55284. kBytes
   one-center:       3576. kBytes
   wavefun   :     229178. kBytes
 
     INWAV:  cpu time    0.0000: real time    0.0003
 Broyden mixing: mesh for mixing (old mesh)
   NGX = 65   NGY = 65   NGZ = 69
  (NGX  =196   NGY  =196   NGZ  =216)
  gives a total of 291525 points

 initial charge density was supplied:
 charge density of overlapping atoms calculated
 number of electron    1610.0000000 magnetization 
 keeping initial charge density in first step


--------------------------------------------------------------------------------------------------------


 Maximum index for non-local projection operator         2382
 Maximum index for augmentation-charges         1073 (set IRDMAX)


--------------------------------------------------------------------------------------------------------


 First call to EWALD:  gamma=   0.097
 Maximum number of real-space cells 3x 3x 3
 Maximum number of reciprocal cells 3x 3x 3

    FEWALD:  cpu time    0.0111: real time    0.0111


--------------------------------------- Iteration      1(   1)  ---------------------------------------


    POTLOK:  cpu time    0.1807: real time    0.1934
    SETDIJ:  cpu time    0.0228: real time    0.0644
     EDDAV:  cpu time   74.9075: real time   75.0079
       DOS:  cpu time    0.0016: real time    0.0030
    --------------------------------------------
      LOOP:  cpu time   75.1126: real time   75.2687

 eigenvalue-minimisations  : 10080
 total energy-change (2. order) : 0.9499161E+04  (-0.6570489E+05)
 number of electron    1610.0000000 magnetization 
 augmentation part     1610.0000000 magnetization 

 DIPCOR: dipole corrections for dipol
 direction  3 min pos   151,
 dipolmoment           0.000000      0.000000     -0.032959 electrons x Angstroem
 Tr[quadrupol]    -98804.938406

 energy correction for charged system         0.000000 eV
 dipol+quadrupol energy correction           -0.000017 eV
 added-field ion interaction         -0.653999 eV  (added to PSCEN)


 Free energy of the ion-electron system (eV)
  ---------------------------------------------------
  alpha Z        PSCENC =      2980.02442923
  Ewald energy   TEWEN  =    277172.05329661
  -Hartree energ DENC   =   -373550.11711935
  -exchange      EXHF   =         0.00000000
  -V(xc)+E(xc)   XCENC  =     -5962.84529549
  PAW double counting   =     90189.25480676   -80838.89165636
  entropy T*S    EENTRO =        -0.04990653
  eigenvalues    EBANDS =     10082.28918734
  atomic energy  EATOM  =     89427.44347338
  Solvation  Ediel_sol  =         0.00000000
  ---------------------------------------------------
  free energy    TOTEN  =      9499.16121559 eV

  energy without entropy =     9499.21112212  energy(sigma->0) =     9499.18616886


--------------------------------------------------------------------------------------------------------




--------------------------------------- Iteration      1(   2)  ---------------------------------------


     EDDAV:  cpu time   78.5371: real time   78.5714
       DOS:  cpu time    0.0057: real time    0.0057
    --------------------------------------------
      LOOP:  cpu time   78.5428: real time   78.5771

 eigenvalue-minimisations  : 10656
 total energy-change (2. order) :-0.1059637E+05  (-0.9902991E+04)
 number of electron    1610.0000000 magnetization 
 augmentation part     1610.0000000 magnetization 

 DIPCOR: dipole corrections for dipol
 direction  3 min pos   151,
 dipolmoment           0.000000      0.000000     -0.032959 electrons x Angstroem
 Tr[quadrupol]    -98804.938406

 energy correction for charged system         0.000000 eV
 dipol+quadrupol energy correction           -0.000017 eV
 added-field ion interaction         -0.653999 eV  (added to PSCEN)


 Free energy of the ion-electron system (eV)
  ---------------------------------------------------
  alpha Z        PSCENC =      2980.02442923
  Ewald energy   TEWEN  =    277172.05329661
  -Hartree energ DENC   =   -373550.11711935
  -exchange      EXHF   =         0.00000000
  -V(xc)+E(xc)   XCENC  =     -5962.84529549
  PAW double counting   =     90189.25480676   -80838.89165636
  entropy T*S    EENTRO =        -0.08621994
  eigenvalues    EBANDS =      -514.04901265
  atomic energy  EATOM  =     89427.44347338
  Solvation  Ediel_sol  =         0.00000000
  ---------------------------------------------------
  free energy    TOTEN  =     -1097.21329781 eV

  energy without entropy =    -1097.12707787  energy(sigma->0) =    -1097.17018784


--------------------------------------------------------------------------------------------------------




--------------------------------------- Iteration      1(   3)  ---------------------------------------


     EDDAV:  cpu time  117.9559: real time  118.2676
       DOS:  cpu time    0.0042: real time    0.0042
    --------------------------------------------
      LOOP:  cpu time  117.9601: real time  118.2718

 eigenvalue-minimisations  : 17616
 total energy-change (2. order) :-0.8825281E+03  (-0.8371945E+03)
 number of electron    1610.0000000 magnetization 
 augmentation part     1610.0000000 magnetization 

 DIPCOR: dipole corrections for dipol
 direction  3 min pos   151,
 dipolmoment           0.000000      0.000000     -0.032959 electrons x Angstroem
 Tr[quadrupol]    -98804.938406

 energy correction for charged system         0.000000 eV
 dipol+quadrupol energy correction           -0.000017 eV
 added-field ion interaction         -0.653999 eV  (added to PSCEN)


 Free energy of the ion-electron system (eV)
  ---------------------------------------------------
  alpha Z        PSCENC =      2980.02442923
  Ewald energy   TEWEN  =    277172.05329661
  -Hartree energ DENC   =   -373550.11711935
  -exchange      EXHF   =         0.00000000
  -V(xc)+E(xc)   XCENC  =     -5962.84529549
  PAW double counting   =     90189.25480676   -80838.89165636
  entropy T*S    EENTRO =        -0.08610554
  eigenvalues    EBANDS =     -1396.57718404
  atomic energy  EATOM  =     89427.44347338
  Solvation  Ediel_sol  =         0.00000000
  ---------------------------------------------------
  free energy    TOTEN  =     -1979.74135480 eV

  energy without entropy =    -1979.65524925  energy(sigma->0) =    -1979.69830202


--------------------------------------------------------------------------------------------------------




--------------------------------------- Iteration      1(   4)  ---------------------------------------


     EDDAV:  cpu time   91.7886: real time   91.8641
       DOS:  cpu time    0.0040: real time    0.0040
    --------------------------------------------
      LOOP:  cpu time   91.7926: real time   91.8681

 eigenvalue-minimisations  : 13008
 total energy-change (2. order) :-0.5048200E+02  (-0.4870038E+02)
 number of electron    1610.0000000 magnetization 
 augmentation part     1610.0000000 magnetization 

 DIPCOR: dipole corrections for dipol
 direction  3 min pos   151,
 dipolmoment           0.000000      0.000000     -0.032959 electrons x Angstroem
 Tr[quadrupol]    -98804.938406

 energy correction for charged system         0.000000 eV
 dipol+quadrupol energy correction           -0.000017 eV
 added-field ion interaction         -0.653999 eV  (added to PSCEN)


 Free energy of the ion-electron system (eV)
  ---------------------------------------------------
  alpha Z        PSCENC =      2980.02442923
  Ewald energy   TEWEN  =    277172.05329661
  -Hartree energ DENC   =   -373550.11711935
  -exchange      EXHF   =         0.00000000
  -V(xc)+E(xc)   XCENC  =     -5962.84529549
  PAW double counting   =     90189.25480676   -80838.89165636
  entropy T*S    EENTRO =        -0.09735435
  eigenvalues    EBANDS =     -1447.04793641
  atomic energy  EATOM  =     89427.44347338
  Solvation  Ediel_sol  =         0.00000000
  ---------------------------------------------------
  free energy    TOTEN  =     -2030.22335597 eV

  energy without entropy =    -2030.12600162  energy(sigma->0) =    -2030.17467880


--------------------------------------------------------------------------------------------------------




--------------------------------------- Iteration      1(   5)  ---------------------------------------


     EDDAV:  cpu time  106.7970: real time  106.8613
       DOS:  cpu time    0.0039: real time    0.0039
    --------------------------------------------
      LOOP:  cpu time  106.8009: real time  106.8653

 eigenvalue-minimisations  : 15504
 total energy-change (2. order) :-0.2437436E+01  (-0.2396611E+01)
 number of electron    1610.0000000 magnetization 
 augmentation part     1610.0000000 magnetization 

 DIPCOR: dipole corrections for dipol
 direction  3 min pos   151,
 dipolmoment           0.000000      0.000000     -0.032959 electrons x Angstroem
 Tr[quadrupol]    -98804.938406

 energy correction for charged system         0.000000 eV
 dipol+quadrupol energy correction           -0.000017 eV
 added-field ion interaction         -0.653999 eV  (added to PSCEN)


 Free energy of the ion-electron system (eV)
  ---------------------------------------------------
  alpha Z        PSCENC =      2980.02442923
  Ewald energy   TEWEN  =    277172.05329661
  -Hartree energ DENC   =   -373550.11711935
  -exchange      EXHF   =         0.00000000
  -V(xc)+E(xc)   XCENC  =     -5962.84529549
  PAW double counting   =     90189.25480676   -80838.89165636
  entropy T*S    EENTRO =        -0.09829840
  eigenvalues    EBANDS =     -1449.48442834
  atomic energy  EATOM  =     89427.44347338
  Solvation  Ediel_sol  =         0.00000000
  ---------------------------------------------------
  free energy    TOTEN  =     -2032.66079196 eV

  energy without entropy =    -2032.56249356  energy(sigma->0) =    -2032.61164276


--------------------------------------------------------------------------------------------------------




--------------------------------------- Iteration      1(   6)  ---------------------------------------


     EDDAV:  cpu time  101.1442: real time  101.1776
       DOS:  cpu time    0.0038: real time    0.0038
    --------------------------------------------
      LOOP:  cpu time  101.1480: real time  101.1814

 eigenvalue-minimisations  : 14640
 total energy-change (2. order) :-0.1292940E+00  (-0.1283199E+00)
 number of electron    1610.0000000 magnetization 
 augmentation part     1610.0000000 magnetization 

 DIPCOR: dipole corrections for dipol
 direction  3 min pos   151,
 dipolmoment           0.000000      0.000000     -0.032959 electrons x Angstroem
 Tr[quadrupol]    -98804.938406

 energy correction for charged system         0.000000 eV
 dipol+quadrupol energy correction           -0.000017 eV
 added-field ion interaction         -0.653999 eV  (added to PSCEN)


 Free energy of the ion-electron system (eV)
  ---------------------------------------------------
  alpha Z        PSCENC =      2980.02442923
  Ewald energy   TEWEN  =    277172.05329661
  -Hartree energ DENC   =   -373550.11711935
  -exchange      EXHF   =         0.00000000
  -V(xc)+E(xc)   XCENC  =     -5962.84529549
  PAW double counting   =     90189.25480676   -80838.89165636
  entropy T*S    EENTRO =        -0.09832617
  eigenvalues    EBANDS =     -1449.61369458
  atomic energy  EATOM  =     89427.44347338
  Solvation  Ediel_sol  =         0.00000000
  ---------------------------------------------------
  free energy    TOTEN  =     -2032.79008597 eV

  energy without entropy =    -2032.69175980  energy(sigma->0) =    -2032.74092288


--------------------------------------------------------------------------------------------------------




--------------------------------------- Iteration      1(   7)  ---------------------------------------


[...]

 eigenvalue-minimisations  :  9738
 total energy-change (2. order) : 0.2359877E-04  (-0.7110227E-05)
 number of electron    1609.9999971 magnetization 
 augmentation part      528.4178253 magnetization 

 DIPCOR: dipole corrections for dipol
 direction  3 min pos   151,
 dipolmoment           0.000000      0.000000     -0.851623 electrons x Angstroem
 Tr[quadrupol]    -98796.132764

 energy correction for charged system         0.000000 eV
 dipol+quadrupol energy correction           -0.011174 eV
 added-field ion interaction        -16.856996 eV  (added to PSCEN)


 eigenvalues of (default mixing * dielectric matrix)
  average eigenvalue GAMMA=   0.6385
  2.3776  0.8093  0.2916  0.1700  0.1196  0.0628

  free energy =  -0.188092876025E+04  energy without entropy=  -0.188079740500E+04


--------------------------------------------------------------------------------------------------------




--------------------------------------- Iteration    132(   8)  ---------------------------------------


    POTLOK:  cpu time    0.1709: real time    0.1715
    SETDIJ:  cpu time    0.0202: real time    0.0202
    EDDIAG:  cpu time   14.0911: real time   14.0990
  RMM-DIIS:  cpu time   19.5246: real time   19.5356
    ORTHCH:  cpu time    4.9499: real time    4.9514
       DOS:  cpu time    0.0011: real time    0.0011
    --------------------------------------------
      LOOP:  cpu time   38.7577: real time   38.7788

 eigenvalue-minimisations  :  5614
 total energy-change (2. order) : 0.2561137E-07  (-0.1253520E-05)
 number of electron    1609.9999971 magnetization 
 augmentation part      528.4178253 magnetization 

 DIPCOR: dipole corrections for dipol
 direction  3 min pos   151,
 dipolmoment           0.000000      0.000000     -0.851684 electrons x Angstroem
 Tr[quadrupol]    -98796.134879

 energy correction for charged system         0.000000 eV
 dipol+quadrupol energy correction           -0.011175 eV
 added-field ion interaction        -16.858210 eV  (added to PSCEN)


  free energy =  -0.188092876022E+04  energy without entropy=  -0.188079737639E+04


--------------------------------------------------------------------------------------------------------




------------------------ aborting loop because EDIFF is reached ----------------------------------------


    CHARGE:  cpu time    3.1081: real time    3.1094
    FORLOC:  cpu time    0.1691: real time    0.1691
    FORNL :  cpu time   12.6040: real time   12.6095
    STRESS:  cpu time   37.5727: real time   37.5856
    FORCOR:  cpu time    0.2788: real time    0.2789
    FORHAR:  cpu time    0.1982: real time    0.1982
    MIXING:  cpu time    0.0059: real time    0.0059
    OFIELD:  cpu time    0.0001: real time    0.0001

  Number of pair interactions contributing to vdW energy: 1149579
  Edisp (eV):  -18.35407
    FORVDW:  cpu time    0.1568: real time    0.1568

  FORCE on cell =-STRESS in cart. coord.  units (eV):
  Direction    XX          YY          ZZ          XY          YZ          ZX
  --------------------------------------------------------------------------------------
  Alpha Z  2980.67845  2980.67845  2980.67845
  Ewald  346727.18486344208.13663************  1722.38057    -9.12287   -28.98647
  Hartree367601.75129365383.13676************  1494.84128    -8.08801   -24.57487
  E(xc)   -7502.82055 -7503.19745 -7518.64689     0.31658     0.02508    -0.00222
  Local  ************************748411.06911 -3229.39669    17.41373    53.84559
  n-local  2100.45158  2098.96349  1851.53804     1.88791    -0.28748    -0.07049
  augment  8674.79388  8674.52779  8679.47463     0.15715     0.02676    -0.01135
  Kinetic 18965.02622 18954.76811 19071.45407     9.84885    -0.51810    -0.17320
  Fock        0.00000     0.00000     0.00000     0.00000     0.00000     0.00000
  vdW       -22.86470   -21.96252   -19.37060    -0.65509     0.01956     0.01578
  -------------------------------------------------------------------------------------
  Total    -162.72973  -161.85970   -77.90487    -0.61944    -0.53133     0.04277
  in kB     -42.63493   -42.40699   -20.41095    -0.16229    -0.13921     0.01121
  external pressure =      -35.15 kB  Pullay stress =        0.00 kB



--------------------------------------------------------------------------------------------------------



  FREE ENERGIE OF THE ION-ELECTRON SYSTEM (eV)
  ---------------------------------------------------
  free  energy   TOTEN  =     -1899.28283339 eV

  energy  without entropy=    -1899.15144956  energy(sigma->0) =    -1899.21714147
 
 d Force = 0.1107332E-03[ 0.432E-04, 0.178E-03]  d Energy = 0.1402895E-03-0.296E-04
 d Force =-0.1105644E+02[-0.111E+02,-0.111E+02]  d Ewald  =-0.1105644E+02-0.278E-06


--------------------------------------------------------------------------------------------------------


    POTLOK:  cpu time    0.1978: real time    0.2009


--------------------------------------------------------------------------------------------------------




--------------------------------------------------------------------------------------------------------


    WAVPRE:  cpu time    0.1363: real time    0.1375
    FEWALD:  cpu time    0.0098: real time    0.0098
    ORTHCH:  cpu time    8.8650: real time    8.8683
     LOOP+:  cpu time  526.8874: real time  527.2300


--------------------------------------- Iteration    133(   1)  ---------------------------------------


    POTLOK:  cpu time    0.1741: real time    0.1743
    SETDIJ:  cpu time    0.0201: real time    0.0201
     EDDAV:  cpu time   75.2571: real time   75.2914
       DOS:  cpu time    0.0014: real time    0.0014
    CHARGE:  cpu time    3.0818: real time    3.0831
    MIXING:  cpu time    0.0076: real time    0.0076
    --------------------------------------------
      LOOP:  cpu time   78.5422: real time   78.5780

 eigenvalue-minimisations  : 10080
 total energy-change (2. order) : 0.1329610E-03  (-0.4784152E-02)
 number of electron    1609.9999971 magnetization 
 augmentation part      528.4175768 magnetization 

 DIPCOR: dipole corrections for dipol
 direction  3 min pos   151,
 dipolmoment           0.000000      0.000000     -0.851601 electrons x Angstroem
 Tr[quadrupol]    -98796.312770

 energy correction for charged system         0.000000 eV
 dipol+quadrupol energy correction           -0.011173 eV
 added-field ion interaction        -16.857939 eV  (added to PSCEN)


  free energy =  -0.188092862728E+04  energy without entropy=  -0.188079725658E+04


--------------------------------------------------------------------------------------------------------




--------------------------------------- Iteration    133(   2)  ---------------------------------------


    POTLOK:  cpu time    0.1709: real time    0.1715
    SETDIJ:  cpu time    0.0201: real time    0.0201
    EDDIAG:  cpu time   14.0727: real time   14.0795
  RMM-DIIS:  cpu time   36.1645: real time   36.1834
    ORTHCH:  cpu time    4.6376: real time    4.6386
       DOS:  cpu time    0.0012: real time    0.0012
    CHARGE:  cpu time    3.0932: real time    3.0940
    MIXING:  cpu time    0.0045: real time    0.0045
    --------------------------------------------
      LOOP:  cpu time   58.1646: real time   58.1930

 eigenvalue-minimisations  : 10361
 total energy-change (2. order) :-0.1187255E-03  (-0.7387624E-04)
 number of electron    1609.9999971 magnetization 
 augmentation part      528.4183915 magnetization 

 DIPCOR: dipole corrections for dipol
 direction  3 min pos   151,
 dipolmoment           0.000000      0.000000     -0.850569 electrons x Angstroem
 Tr[quadrupol]    -98796.315241

 energy correction for charged system         0.000000 eV
 dipol+quadrupol energy correction           -0.011146 eV
 added-field ion interaction        -16.837508 eV  (added to PSCEN)


 eigenvalues of (default mixing * dielectric matrix)
  average eigenvalue GAMMA=   0.2659
  0.2659

  free energy =  -0.188092874601E+04  energy without entropy=  -0.188079731069E+04


--------------------------------------------------------------------------------------------------------




--------------------------------------- Iteration    133(   3)  ---------------------------------------


    POTLOK:  cpu time    0.1709: real time    0.1724
    SETDIJ:  cpu time    0.0202: real time    0.0202
    EDDIAG:  cpu time   14.0830: real time   14.0877
  RMM-DIIS:  cpu time   30.5088: real time   30.5227
    ORTHCH:  cpu time    4.6934: real time    4.6943
       DOS:  cpu time    0.0012: real time    0.0012
    CHARGE:  cpu time    3.0974: real time    3.0996
    MIXING:  cpu time    0.0047: real time    0.0047
    --------------------------------------------
      LOOP:  cpu time   52.5796: real time   52.6027

 eigenvalue-minimisations  :  8761
 total energy-change (2. order) : 0.4886255E-04  (-0.8490779E-05)
 number of electron    1609.9999971 magnetization 
 augmentation part      528.4175214 magnetization 

 DIPCOR: dipole corrections for dipol
 direction  3 min pos   151,
 dipolmoment           0.000000      0.000000     -0.853093 electrons x Angstroem
 Tr[quadrupol]    -98796.311905

 energy correction for charged system         0.000000 eV
 dipol+quadrupol energy correction           -0.011212 eV
 added-field ion interaction        -16.887477 eV  (added to PSCEN)


 eigenvalues of (default mixing * dielectric matrix)
  average eigenvalue GAMMA=   0.4987
  0.8892  0.1082

  free energy =  -0.188092869715E+04  energy without entropy=  -0.188079737449E+04


--------------------------------------------------------------------------------------------------------




--------------------------------------- Iteration    133(   4)  ---------------------------------------


    POTLOK:  cpu time    0.1705: real time    0.1713
    SETDIJ:  cpu time    0.0202: real time    0.0203
    EDDIAG:  cpu time   13.9802: real time   13.9837
  RMM-DIIS:  cpu time   32.2366: real time   32.2488
    ORTHCH:  cpu time    4.5778: real time    4.5794
       DOS:  cpu time    0.0012: real time    0.0012
    CHARGE:  cpu time    3.0849: real time    3.0858
    MIXING:  cpu time    0.0050: real time    0.0050
    --------------------------------------------
      LOOP:  cpu time   54.0763: real time   54.0955

 eigenvalue-minimisations  :  9223
 total energy-change (2. order) :-0.8522223E-04  (-0.1087599E-04)
 number of electron    1609.9999971 magnetization 
 augmentation part      528.4192533 magnetization 

 DIPCOR: dipole corrections for dipol
 direction  3 min pos   151,
 dipolmoment           0.000000      0.000000     -0.847900 electrons x Angstroem
 Tr[quadrupol]    -98796.319362

 energy correction for charged system         0.000000 eV
 dipol+quadrupol energy correction           -0.011076 eV
 added-field ion interaction        -16.784687 eV  (added to PSCEN)


 eigenvalues of (default mixing * dielectric matrix)
  average eigenvalue GAMMA=   0.5567
  1.4665  0.1335  0.0701

  free energy =  -0.188092878237E+04  energy without entropy=  -0.188079725286E+04


--------------------------------------------------------------------------------------------------------




--------------------------------------- Iteration    133(   5)  ---------------------------------------


    POTLOK:  cpu time    0.1749: real time    0.1751
    SETDIJ:  cpu time    0.0203: real time    0.0203
    EDDIAG:  cpu time   13.9587: real time   13.9687
  RMM-DIIS:  cpu time   32.7679: real time   32.7848
    ORTHCH:  cpu time    4.7092: real time    4.7106
       DOS:  cpu time    0.0012: real time    0.0012
    CHARGE:  cpu time    3.0951: real time    3.0960
    MIXING:  cpu time    0.0053: real time    0.0053
    --------------------------------------------
      LOOP:  cpu time   54.7325: real time   54.7620

 eigenvalue-minimisations  :  9466
 total energy-change (2. order) : 0.9114505E-04  (-0.9896402E-05)
 number of electron    1609.9999971 magnetization 
 augmentation part      528.4177604 magnetization 

 DIPCOR: dipole corrections for dipol
 direction  3 min pos   151,
 dipolmoment           0.000000      0.000000     -0.852688 electrons x Angstroem
 Tr[quadrupol]    -98796.314492

 energy correction for charged system         0.000000 eV
 dipol+quadrupol energy correction           -0.011202 eV
 added-field ion interaction        -16.879466 eV  (added to PSCEN)


 eigenvalues of (default mixing * dielectric matrix)
  average eigenvalue GAMMA=   0.6249
  1.9960  0.3186  0.1222  0.0628

  free energy =  -0.188092869122E+04  energy without entropy=  -0.188079734646E+04


--------------------------------------------------------------------------------------------------------




--------------------------------------- Iteration    133(   6)  ---------------------------------------


    POTLOK:  cpu time    0.1707: real time    0.1722
    SETDIJ:  cpu time    0.0203: real time    0.0203
    EDDIAG:  cpu time   14.0097: real time   14.0142
  RMM-DIIS:  cpu time   28.7717: real time   28.7860
    ORTHCH:  cpu time    4.6333: real time    4.6350
       DOS:  cpu time    0.0012: real time    0.0012
    CHARGE:  cpu time    3.0985: real time    3.0994
    MIXING:  cpu time    0.0056: real time    0.0056
    --------------------------------------------
      LOOP:  cpu time   50.7111: real time   50.7338

 eigenvalue-minimisations  :  8358
 total energy-change (2. order) : 0.1960091E-04  (-0.5988411E-05)
 number of electron    1609.9999971 magnetization 
 augmentation part      528.4178600 magnetization 

 DIPCOR: dipole corrections for dipol
 direction  3 min pos   151,
 dipolmoment           0.000000      0.000000     -0.852231 electrons x Angstroem
 Tr[quadrupol]    -98796.317443

 energy correction for charged system         0.000000 eV
 dipol+quadrupol energy correction           -0.011190 eV
 added-field ion interaction        -16.870424 eV  (added to PSCEN)


 eigenvalues of (default mixing * dielectric matrix)
  average eigenvalue GAMMA=   0.6868
  2.2688  0.7505  0.2317  0.1200  0.0629

  free energy =  -0.188092867162E+04  energy without entropy=  -0.188079728867E+04


--------------------------------------------------------------------------------------------------------




--------------------------------------- Iteration    133(   7)  ---------------------------------------


    POTLOK:  cpu time    0.1704: real time    0.1712
    SETDIJ:  cpu time    0.0203: real time    0.0203
    EDDIAG:  cpu time   14.1071: real time   14.1123
  RMM-DIIS:  cpu time   20.4494: real time   20.4630
    ORTHCH:  cpu time    4.7857: real time    4.7876
       DOS:  cpu time    0.0012: real time    0.0012
    --------------------------------------------
      LOOP:  cpu time   39.5340: real time   39.5556

 eigenvalue-minimisations  :  5873
 total energy-change (2. order) :-0.2305707E-05  (-0.1950099E-05)
 number of electron    1609.9999971 magnetization 
 augmentation part      528.4178600 magnetization 

 DIPCOR: dipole corrections for dipol
 direction  3 min pos   151,
 dipolmoment           0.000000      0.000000     -0.852302 electrons x Angstroem
 Tr[quadrupol]    -98796.317066

 energy correction for charged system         0.000000 eV
 dipol+quadrupol energy correction           -0.011192 eV
 added-field ion interaction        -16.871821 eV  (added to PSCEN)


  free energy =  -0.188092867393E+04  energy without entropy=  -0.188079730435E+04


--------------------------------------------------------------------------------------------------------




------------------------ aborting loop because EDIFF is reached ----------------------------------------


    CHARGE:  cpu time    3.0877: real time    3.0888
    FORLOC:  cpu time    0.1697: real time    0.1697
    FORNL :  cpu time   12.6009: real time   12.6090
    STRESS:  cpu time   37.5708: real time   37.5890
    FORCOR:  cpu time    0.2793: real time    0.2794
    FORHAR:  cpu time    0.1988: real time    0.1989
    MIXING:  cpu time    0.0057: real time    0.0057
    OFIELD:  cpu time    0.0001: real time    0.0001

  Number of pair interactions contributing to vdW energy: 1149574
  Edisp (eV):  -18.35461
    FORVDW:  cpu time    0.1568: real time    0.1568

  FORCE on cell =-STRESS in cart. coord.  units (eV):
  Direction    XX          YY          ZZ          XY          YZ          ZX
  --------------------------------------------------------------------------------------
  Alpha Z  2980.67845  2980.67845  2980.67845
  Ewald  346734.91500344216.60246************  1722.53536    -9.22415   -29.06896
  Hartree367611.61549365393.14405************  1495.03164    -8.19186   -24.82385
  E(xc)   -7502.82391 -7503.20008 -7518.64558     0.31595     0.02445    -0.00207
  Local  ************************748428.61088 -3229.74338    17.61706    54.18404
  n-local  2100.47020  2099.01102  1851.59875     1.87054    -0.28271    -0.07684
  augment  8674.79806  8674.53330  8679.46400     0.15666     0.02670    -0.01156
  Kinetic 18965.04021 18954.76732 19071.43013     9.86697    -0.51268    -0.17550
  Fock        0.00000     0.00000     0.00000     0.00000     0.00000     0.00000
  vdW       -22.86509   -21.96301   -19.37104    -0.65532     0.01952     0.01577
  -------------------------------------------------------------------------------------
  Total    -162.75467  -161.84048   -77.82015    -0.62158    -0.52367     0.04103
  in kB     -42.64147   -42.40195   -20.38876    -0.16285    -0.13720     0.01075
  external pressure =      -35.14 kB  Pullay stress =        0.00 kB



--------------------------------------------------------------------------------------------------------



  FREE ENERGIE OF THE ION-ELECTRON SYSTEM (eV)
  ---------------------------------------------------
  free  energy   TOTEN  =     -1899.28328487 eV

  energy  without entropy=    -1899.15191530  energy(sigma->0) =    -1899.21760009
 
 d Force = 0.4151992E-03[ 0.304E-03, 0.527E-03]  d Energy = 0.4514840E-03-0.363E-04
 d Force =-0.8223431E+01[-0.822E+01,-0.822E+01]  d Ewald  =-0.8223431E+01-0.697E-06


--------------------------------------------------------------------------------------------------------


    POTLOK:  cpu time    0.1956: real time    0.1956


--------------------------------------------------------------------------------------------------------


 Conjugate gradient step on ions:
 trial-energy change:   -0.000451  1 .order   -0.000415   -0.000527   -0.000304
  (g-gl).g = 0.176E-03      g.g   = 0.359E-03  gl.gl    = 0.487E-03
 g(Force)  = 0.359E-03   g(Stress)= 0.000E+00 ortho     = 0.523E-04
 gamma     =   0.36036
 trial     =   1.39491
 opt step  =   3.29720  (harmonic =   3.29720) maximal distance =0.00219526
 next E    = -1899.283456   (d E  =  -0.00062)


--------------------------------------------------------------------------------------------------------


  
 reached required accuracy - stopping structural energy minimisation
     LOOP+:  cpu time  442.7080: real time  442.9181
    4ORBIT:  cpu time    0.0000: real time    0.0000

 total amount of memory used by VASP MPI-rank0   413296. kBytes
=======================================================================

   base      :      30000. kBytes
   nonlr-proj:      84151. kBytes
   fftplans  :      11107. kBytes
   grid      :      55284. kBytes
   one-center:       3576. kBytes
   wavefun   :     229178. kBytes
 
  
  
 General timing and accounting informations for this job:
 ========================================================
  
                  Total CPU time used (sec):    80987.773
                            User time (sec):    80661.871
                          System time (sec):      325.901
                         Elapsed time (sec):    81058.039
  
                   Maximum memory used (kb):      878544.
                   Average memory used (kb):           0.
  
                          Minor page faults:     26526159
                          Major page faults:            0
                 Voluntary context switches:        14755
