 vasp.5.4.4.18Apr17-6-g9f103f2a35 (build Jun 30 2017 19:19:18) complex          
  
 executed on         MareNostrum4 date 2022.06.19  18:43:21
 running on   48 total cores
 distrk:  each k-point on   48 cores,    1 groups
 distr:  one band on NCORES_PER_BAND=   4 cores,   12 groups


--------------------------------------------------------------------------------------------------------


 INCAR:
 POTCAR:    PAW_PBE Au 04Oct2007                  
 POTCAR:    PAW_PBE O 08Apr2002                   
 POTCAR:    PAW_PBE C 08Apr2002                   
 POTCAR:    PAW_PBE N 08Apr2002                   
 POTCAR:    PAW_PBE H 15Jun2001                   
 POTCAR:    PAW_PBE Au 04Oct2007                  
  local pseudopotential read in
  partial core-charges read in
  partial kinetic energy density read in
  atomic valenz-charges read in
  non local Contribution for L=           2  read in
    real space projection operators read in
  non local Contribution for L=           2  read in
    real space projection operators read in
  non local Contribution for L=           0  read in
    real space projection operators read in
  non local Contribution for L=           0  read in
    real space projection operators read in
  non local Contribution for L=           1  read in
    real space projection operators read in
  non local Contribution for L=           1  read in
    real space projection operators read in
    PAW grid and wavefunctions read in
 
   number of l-projection  operators is LMAX  =           6
   number of lm-projection operators is LMMAX =          18
 
 POTCAR:    PAW_PBE O 08Apr2002                   
  local pseudopotential read in
  partial core-charges read in
  partial kinetic energy density read in
  kinetic energy density of atom read in
  atomic valenz-charges read in
  non local Contribution for L=           0  read in
    real space projection operators read in
  non local Contribution for L=           0  read in
    real space projection operators read in
  non local Contribution for L=           1  read in
    real space projection operators read in
  non local Contribution for L=           1  read in
    real space projection operators read in
    PAW grid and wavefunctions read in
 
   number of l-projection  operators is LMAX  =           4
   number of lm-projection operators is LMMAX =           8
 
 POTCAR:    PAW_PBE C 08Apr2002                   
  local pseudopotential read in
  partial core-charges read in
  partial kinetic energy density read in
  atomic valenz-charges read in
  non local Contribution for L=           0  read in
    real space projection operators read in
  non local Contribution for L=           0  read in
    real space projection operators read in
  non local Contribution for L=           1  read in
    real space projection operators read in
  non local Contribution for L=           1  read in
    real space projection operators read in
    PAW grid and wavefunctions read in
 
   number of l-projection  operators is LMAX  =           4
   number of lm-projection operators is LMMAX =           8
 
 POTCAR:    PAW_PBE N 08Apr2002                   
  local pseudopotential read in
  partial core-charges read in
  partial kinetic energy density read in
  atomic valenz-charges read in
  non local Contribution for L=           0  read in
    real space projection operators read in
  non local Contribution for L=           0  read in
    real space projection operators read in
  non local Contribution for L=           1  read in
    real space projection operators read in
  non local Contribution for L=           1  read in
    real space projection operators read in
    PAW grid and wavefunctions read in
 
   number of l-projection  operators is LMAX  =           4
   number of lm-projection operators is LMMAX =           8
 
 POTCAR:    PAW_PBE H 15Jun2001                   
  local pseudopotential read in
  atomic valenz-charges read in
  non local Contribution for L=           0  read in
    real space projection operators read in
  non local Contribution for L=           0  read in
    real space projection operators read in
  non local Contribution for L=           1  read in
    real space projection operators read in
    PAW grid and wavefunctions read in
 
   number of l-projection  operators is LMAX  =           3
   number of lm-projection operators is LMMAX =           5
 
 Optimization of the real space projectors (new method)

 maximal supplied QI-value         = 15.12
 optimisation between [QCUT,QGAM] = [ 10.73, 21.62] = [ 32.26,130.87] Ry 
 Optimized for a Real-space Cutoff    1.42 Angstroem

   l    n(q)    QCUT    max X(q) W(low)/X(q) W(high)/X(q)  e(spline) 
   2      8    10.734    60.898    0.15E-03    0.34E-03    0.26E-06
   2      8    10.734    58.894    0.16E-03    0.35E-03    0.27E-06
   0      9    10.734   109.617    0.92E-04    0.16E-03    0.12E-06
   0      9    10.734    75.026    0.89E-04    0.15E-03    0.11E-06
   1      9    10.734    16.344    0.25E-03    0.88E-04    0.14E-06
   1      9    10.734    10.160    0.20E-03    0.77E-04    0.11E-06
 Optimization of the real space projectors (new method)

 maximal supplied QI-value         = 24.76
 optimisation between [QCUT,QGAM] = [ 10.64, 21.54] = [ 31.73,129.89] Ry 
 Optimized for a Real-space Cutoff    1.23 Angstroem

   l    n(q)    QCUT    max X(q) W(low)/X(q) W(high)/X(q)  e(spline) 
   0      8    10.645    20.381    0.38E-03    0.60E-03    0.15E-06
   0      8    10.645    15.268    0.40E-03    0.65E-03    0.17E-06
   1      7    10.645     5.964    0.30E-03    0.63E-03    0.18E-06
   1      7    10.645     5.382    0.24E-03    0.53E-03    0.16E-06
 Optimization of the real space projectors (new method)

 maximal supplied QI-value         = 25.13
 optimisation between [QCUT,QGAM] = [ 10.81, 21.61] = [ 32.71,130.83] Ry 
 Optimized for a Real-space Cutoff    1.23 Angstroem

   l    n(q)    QCUT    max X(q) W(low)/X(q) W(high)/X(q)  e(spline) 
   0      8    10.807   115.676    0.36E-03    0.72E-03    0.24E-06
   0      8    10.807    87.132    0.35E-03    0.71E-03    0.24E-06
   1      7    10.807     4.429    0.19E-03    0.39E-03    0.11E-06
   1      7    10.807     2.733    0.14E-03    0.28E-03    0.13E-06
 Optimization of the real space projectors (new method)

 maximal supplied QI-value         = 25.13
 optimisation between [QCUT,QGAM] = [ 10.81, 21.61] = [ 32.71,130.83] Ry 
 Optimized for a Real-space Cutoff    1.23 Angstroem

   l    n(q)    QCUT    max X(q) W(low)/X(q) W(high)/X(q)  e(spline) 
   0      8    10.807    79.467    0.34E-03    0.68E-03    0.21E-06
   0      8    10.807    66.151    0.34E-03    0.67E-03    0.21E-06
   1      7    10.807    14.030    0.45E-03    0.13E-02    0.11E-05
   1      7    10.807     9.831    0.48E-03    0.13E-02    0.11E-05
 Optimization of the real space projectors (new method)

 maximal supplied QI-value         = 34.20
 optimisation between [QCUT,QGAM] = [ 10.60, 21.55] = [ 31.48,130.03] Ry 
 Optimized for a Real-space Cutoff    1.23 Angstroem

   l    n(q)    QCUT    max X(q) W(low)/X(q) W(high)/X(q)  e(spline) 
   0      8    10.603    19.460    0.37E-03    0.59E-03    0.23E-06
   0      8    10.603    12.209    0.35E-03    0.56E-03    0.22E-06
   1      7    10.603     4.655    0.70E-04    0.28E-03    0.29E-06
  PAW_PBE Au 04Oct2007                  :
 energy of atom  1       EATOM= -926.0867
 kinetic energy error for atom=    0.0057 (will be added to EATOM!!)
  PAW_PBE O 08Apr2002                   :
 energy of atom  2       EATOM= -432.3788
 kinetic energy error for atom=    0.0389 (will be added to EATOM!!)
  PAW_PBE C 08Apr2002                   :
 energy of atom  3       EATOM= -147.1560
 kinetic energy error for atom=    0.0116 (will be added to EATOM!!)
  PAW_PBE N 08Apr2002                   :
 energy of atom  4       EATOM= -264.5486
 kinetic energy error for atom=    0.0253 (will be added to EATOM!!)
  PAW_PBE H 15Jun2001                   :
 energy of atom  5       EATOM=  -12.4884
 kinetic energy error for atom=    0.0045 (will be added to EATOM!!)
 
 
 POSCAR: Au  O  C  N  H                          
  positions in direct lattice
  velocities in cartesian coordinates
 exchange correlation table for  LEXCH =        8
   RHO(1)=    0.500       N(1)  =     2000
   RHO(2)=  100.500       N(2)  =     4000
 


--------------------------------------------------------------------------------------------------------


 ion  position               nearest neighbor table
   1  0.000  0.000  0.000- 102 2.94  57 2.94  13 2.94 101 2.94   2 2.94 156 2.94  56 2.94  68 2.94
                           114 2.94
   2  0.083  0.083  0.000-   3 2.94   7 2.94   4 2.94 102 2.94  14 2.94  15 2.94   1 2.94  57 2.94
                            13 2.94
   3  0.167  0.167  0.000-   2 2.94   4 2.94   7 2.94  15 2.94   5 2.94  19 2.94  10 2.94   8 2.94
                            17 2.94
   4  0.250  0.000  0.000-   3 2.94   2 2.94  15 2.94  71 2.94  57 2.94  60 2.94   5 2.94  59 2.94
                            16 2.94
   5  0.333  0.083  0.000-  10 2.94  17 2.94   3 2.94   6 2.94  18 2.94  16 2.94   4 2.94  97 2.94
                            60 2.94
   6  0.417  0.167  0.000-  98 2.94  97 2.94 103 2.94   5 2.94  18 2.94 110 2.94  10 2.94  11 2.94
                            22 2.94
   7  0.000  0.250  0.000-   2 2.94   3 2.94   8 2.94  19 2.94 102 2.94 107 2.94 108 2.94  14 2.94
                           120 2.94
   8  0.083  0.333  0.000-  49 2.94   7 2.94  20 2.94  19 2.94  10 2.94   9 2.94 108 2.94   3 2.94
                            21 2.94
   9  0.167  0.417  0.000-  50 2.94  61 2.94  52 2.94  49 2.94  23 2.94  21 2.94   8 2.94  11 2.94
                            10 2.94
  10  0.250  0.250  0.000-   5 2.94  22 2.94  17 2.94  21 2.94   3 2.94   6 2.94   8 2.94  11 2.94
                             9 2.94
  11  0.333  0.333  0.000-  52 2.94  12 2.94 103 2.94  24 2.94   9 2.94  10 2.94   6 2.94  23 2.94
                            22 2.94
  12  0.417  0.417  0.000-  52 2.94  53 2.94  11 2.94  64 2.94 145 2.94  24 2.94 104 2.94 103 2.94
                           116 2.94
  13  0.083  0.000  0.120-  26 2.90  81 2.91  25 2.91  14 2.94   1 2.94  57 2.94  68 2.94 114 2.94
                            15 2.94  71 2.94  69 2.94   2 2.94
  14  0.000  0.167  0.120- 131 2.90  27 2.91  25 2.91  13 2.94 114 2.94  15 2.94   2 2.94 102 2.94
                           118 2.94  19 2.94 120 2.94   7 2.94
  15  0.167  0.083  0.120-  26 2.90  27 2.91  28 2.91  19 2.94   3 2.94  14 2.94  17 2.94   2 2.94
                             4 2.94  16 2.94  13 2.94  71 2.94
  16  0.333  0.000  0.120-  84 2.90  28 2.91  29 2.91  17 2.94  18 2.94 164 2.94   5 2.94  60 2.94
                            15 2.94  71 2.94  72 2.94   4 2.94
  17  0.250  0.167  0.120-  32 2.91  30 2.91  28 2.91  18 2.94  16 2.94  22 2.94   5 2.94  15 2.94
                            10 2.94  19 2.94  21 2.94   3 2.94
  18  0.417  0.083  0.120-  29 2.91 121 2.91  30 2.91  17 2.94  22 2.94  16 2.94 110 2.94   6 2.94
                             5 2.94 109 2.94 164 2.94  97 2.94
  19  0.083  0.250  0.120-  31 2.90  27 2.91  32 2.91  15 2.94   7 2.94   3 2.94   8 2.94  17 2.94
                            14 2.94 120 2.94  21 2.94  20 2.94
  20  1.000  0.417  0.120-  33 2.90 173 2.90  31 2.91 162 2.94  49 2.94  61 2.94 160 2.94   8 2.94
                           120 2.94  21 2.94  19 2.94 108 2.94
  21  0.167  0.333  0.120-  34 2.90  33 2.91  32 2.91  61 2.94  22 2.94  23 2.94   9 2.94  10 2.94
                            20 2.94  19 2.94  17 2.94   8 2.94
  22  0.333  0.250  0.120-  35 2.90  30 2.90  34 2.91  18 2.94  21 2.94  17 2.94  10 2.94 110 2.94
                            24 2.94  23 2.94   6 2.94  11 2.94
  23  0.250  0.417  0.120-  36 2.88  34 2.91  74 2.91  61 2.94  63 2.94  21 2.94  64 2.94  52 2.94
                             9 2.94  24 2.94  22 2.94  11 2.94
  24  0.417  0.333  0.120- 127 2.89  35 2.90  36 2.90  64 2.94  11 2.94  12 2.94 103 2.94 115 2.94
                           116 2.94  23 2.94  22 2.94 110 2.94
  25  0.000  0.083  0.238-  13 2.91 114 2.91  14 2.91  26 2.93  81 2.93 126 2.93 131 2.93 125 2.94
                            27 2.94 138 2.94  37 2.95  38 2.95
  26  0.166  0.001  0.238-  15 2.90  13 2.90  71 2.91  82 2.92  27 2.93  25 2.93  28 2.94  84 2.94
                            93 2.94  38 2.95  81 2.95  40 2.95
  27  0.083  0.167  0.238-  19 2.91  14 2.91  15 2.91  26 2.93 131 2.93  31 2.93  32 2.94  28 2.94
                            25 2.94  43 2.94  39 2.95  38 2.95
  28  0.250  0.084  0.238-  17 2.91  15 2.91  16 2.91  84 2.93  32 2.93  30 2.94  26 2.94  27 2.94
                            39 2.94  29 2.94  41 2.95  40 2.95
  29  0.417  0.000  0.238-  18 2.91 164 2.91  16 2.91  84 2.93 177 2.93  30 2.94 121 2.94 175 2.94
                            41 2.94  28 2.94 133 2.94  96 2.95
  30  0.333  0.167  0.238-  22 2.90  17 2.91  18 2.91  32 2.93  29 2.94  28 2.94  35 2.94  34 2.94
                            42 2.94 121 2.94  41 2.95  46 2.95
  31  0.000  0.333  0.238-  19 2.90 120 2.91  20 2.91  33 2.93  27 2.93 132 2.93 173 2.94 131 2.94
                            32 2.94 144 2.94  44 2.95  43 2.95
  32  0.167  0.250  0.238-  17 2.91  19 2.91  21 2.91  28 2.93  34 2.93  30 2.93  33 2.94  31 2.94
                            27 2.94  39 2.94  44 2.95  46 2.95
  33  0.083  0.416  0.238-  20 2.90  21 2.91  61 2.91  74 2.93  31 2.93 173 2.93  32 2.94  34 2.94
                            44 2.94  73 2.94  85 2.94  45 2.95
  34  0.250  0.333  0.238-  21 2.90  23 2.91  22 2.91  36 2.93  32 2.93  33 2.94  30 2.94  74 2.94
                            35 2.94  46 2.95  47 2.95  45 2.95
  35  0.416  0.250  0.238-  22 2.90  24 2.90 110 2.90 139 2.91  30 2.94  36 2.94  34 2.94  42 2.94
                           121 2.94  47 2.95 127 2.95 123 2.96
  36  0.332  0.417  0.237-  23 2.88  48 2.89  64 2.90  24 2.90  34 2.93  35 2.94  74 2.94  88 2.94
                            76 2.94  47 2.96  77 2.97 127 2.98
  37  1.000  0.000  0.358-  92 2.92  93 2.93 138 2.93 137 2.93 125 2.94  38 2.94  25 2.95 192 2.95
                            81 2.95
  38  0.083  0.083  0.359-  93 2.92  43 2.93 138 2.94  40 2.94  39 2.94  37 2.94  26 2.95  27 2.95
                            25 2.95
  39  0.167  0.167  0.358-  44 2.94  43 2.94  41 2.94  40 2.94  46 2.94  28 2.94  38 2.94  32 2.94
                            27 2.95
  40  0.250  0.000  0.358-  95 2.93  96 2.94  39 2.94  93 2.94  38 2.94  41 2.94  84 2.94  28 2.95
                            26 2.95
  41  0.333  0.083  0.358- 133 2.93  39 2.94  46 2.94  96 2.94  29 2.94  40 2.94  42 2.94  30 2.95
                            28 2.95
  42  0.417  0.167  0.358- 134 2.93  47 2.94 121 2.94 133 2.94  46 2.94  35 2.94  30 2.94  41 2.94
                           139 2.95
  43  0.000  0.250  0.359-  38 2.93 144 2.93  39 2.94  44 2.94 138 2.94 143 2.94  27 2.94 131 2.95
                            31 2.95
  44  0.084  0.333  0.358-  45 2.93 144 2.94  39 2.94  43 2.94  85 2.94  46 2.94  33 2.94  32 2.95
                            31 2.95
  45  0.166  0.417  0.359-  88 2.92  44 2.93  85 2.94  46 2.94  47 2.94  86 2.94  33 2.95  34 2.95
                            74 2.95
  46  0.250  0.250  0.359-  47 2.93  45 2.94  42 2.94  41 2.94  39 2.94  44 2.94  34 2.95  30 2.95
                            32 2.95
  47  0.333  0.333  0.358-  46 2.93  48 2.94  42 2.94  88 2.94  45 2.94  34 2.95  35 2.95  36 2.96
                           139 2.96
  48  0.416  0.417  0.354-  77 2.89  36 2.89 127 2.90  47 2.94 139 2.94 140 2.96 181 2.96  89 2.96
                            88 2.96
  49  1.000  0.500  0.000-   8 2.94  20 2.94   9 2.94 108 2.94  50 2.94 149 2.94 150 2.94 162 2.94
                            61 2.94
  50  0.083  0.583  0.000-   9 2.94  63 2.94  61 2.94  62 2.94  51 2.94  52 2.94  49 2.94 150 2.94
                            55 2.94
  51  0.167  0.667  0.000-  56 2.94  53 2.94  58 2.94  65 2.94  50 2.94  55 2.94  52 2.94  63 2.94
                            67 2.94
  52  0.250  0.500  0.000-  12 2.94  11 2.94  53 2.94   9 2.94  23 2.94  64 2.94  50 2.94  51 2.94
                            63 2.94
  53  0.333  0.583  0.000-  12 2.94  52 2.94  51 2.94  64 2.94  65 2.94  54 2.94 145 2.94  58 2.94
                            66 2.94
  54  0.417  0.667  0.000-  59 2.94 158 2.94  66 2.94  70 2.94  53 2.94 146 2.94 151 2.94  58 2.94
                           145 2.94
  55  1.000  0.750  0.000- 156 2.94 155 2.94  56 2.94 168 2.94  67 2.94  62 2.94 150 2.94  51 2.94
                            50 2.94
  56  0.083  0.833  0.000-  58 2.94  51 2.94  57 2.94  55 2.94  67 2.94  69 2.94 156 2.94   1 2.94
                            68 2.94
  57  0.167  0.917  0.000-  58 2.94  56 2.94   1 2.94  69 2.94  13 2.94   4 2.94  59 2.94   2 2.94
                            71 2.94
  58  0.250  0.750  0.000-  56 2.94  57 2.94  51 2.94  69 2.94  59 2.94  65 2.94  54 2.94  53 2.94
                            70 2.94
  59  0.333  0.833  0.000-  54 2.94  70 2.94 151 2.94  58 2.94  72 2.94  71 2.94  60 2.94  57 2.94
                             4 2.94
  60  0.417  0.917  0.000- 151 2.94 164 2.94  16 2.94  59 2.94   4 2.94 152 2.94  97 2.94   5 2.94
                            72 2.94
  61  0.083  0.500  0.120-  74 2.89  73 2.91  33 2.91  23 2.94  21 2.94  63 2.94   9 2.94  20 2.94
                            50 2.94  62 2.94  49 2.94 162 2.94
  62  0.000  0.667  0.120-  75 2.88  73 2.91 179 2.91 168 2.94  63 2.94  67 2.94  50 2.94  55 2.94
                            61 2.94 150 2.94 162 2.94 166 2.94
  63  0.167  0.583  0.120-  76 2.88  74 2.91  75 2.91  23 2.94  61 2.94  62 2.94  50 2.94  65 2.94
                            64 2.94  67 2.94  51 2.94  52 2.94
  64  0.333  0.500  0.120-  77 2.90  36 2.90  76 2.91  24 2.94  12 2.94  23 2.94 116 2.94  52 2.94
                            53 2.94  66 2.94  63 2.94  65 2.94
  65  0.250  0.667  0.120-  78 2.88  76 2.90  80 2.91  69 2.94  51 2.94  53 2.94  58 2.94  66 2.94
                            67 2.94  63 2.94  70 2.94  64 2.94
  66  0.417  0.583  0.120-  77 2.89  78 2.90 169 2.90 116 2.94 158 2.94 157 2.94 145 2.94  54 2.94
                            65 2.94  64 2.94  70 2.94  53 2.94
  67  0.083  0.750  0.120-  80 2.87  75 2.91  79 2.92  68 2.94  62 2.94  69 2.94 168 2.94  56 2.94
                            55 2.94  65 2.94  63 2.94  51 2.94
  68  1.000  0.917  0.120-  81 2.90  79 2.91 125 2.91  67 2.94 156 2.94  13 2.94  69 2.94 112 2.94
                           168 2.94 114 2.94   1 2.94  56 2.94
  69  0.167  0.833  0.120-  82 2.89  80 2.89  81 2.91  65 2.94  58 2.94  70 2.94  67 2.94  56 2.94
                            57 2.94  71 2.94  68 2.94  13 2.94
  70  0.333  0.750  0.120-  78 2.88  83 2.89  82 2.91  72 2.94  71 2.94 158 2.94  59 2.94  69 2.94
                            54 2.94  65 2.94  66 2.94  58 2.94
  71  0.250  0.917  0.120-  82 2.88  84 2.91  26 2.91  70 2.94  72 2.94   4 2.94  59 2.94  69 2.94
                            16 2.94  13 2.94  15 2.94  57 2.94
  72  0.417  0.833  0.120-  83 2.88 175 2.91  84 2.91  70 2.94 158 2.94  71 2.94 163 2.94 151 2.94
                            59 2.94 164 2.94  16 2.94  60 2.94
  73  0.999  0.583  0.238- 162 2.90  61 2.91  62 2.91 173 2.93  75 2.93 174 2.93  74 2.93 186 2.94
                            85 2.94  33 2.94 179 2.95  86 2.95
  74  0.165  0.500  0.238-  61 2.89  63 2.91  23 2.91  88 2.93  33 2.93  73 2.93  76 2.93  34 2.94
                            36 2.94  75 2.94  45 2.95  86 2.95
  75  0.082  0.667  0.238-  62 2.88  67 2.91  63 2.91  87 2.93 179 2.93  73 2.93  76 2.93  74 2.94
                            80 2.94  79 2.94  86 2.95  91 2.96
  76  0.248  0.584  0.237-  63 2.88  89 2.90  65 2.90  64 2.91  75 2.93  74 2.93  88 2.94  80 2.94
                            36 2.94  87 2.95  78 2.96  77 2.97
  77  0.416  0.501  0.237-  66 2.89  48 2.89  64 2.90 116 2.90  89 2.92 169 2.94  78 2.94 181 2.94
                           129 2.95 127 2.96  36 2.97  76 2.97
  78  0.332  0.668  0.237-  65 2.88  70 2.88  66 2.90  90 2.90  94 2.91  89 2.91  77 2.94  82 2.95
                            80 2.95  83 2.96  76 2.96 169 2.97
  79  0.999  0.834  0.238- 168 2.89  68 2.91  67 2.92  80 2.92 180 2.93 125 2.93 179 2.94  92 2.94
                            75 2.94 192 2.95  81 2.95  91 2.95
  80  0.165  0.751  0.237-  67 2.87  94 2.88  69 2.89  65 2.91  79 2.92  81 2.93  75 2.94  76 2.94
                            87 2.94  78 2.95  92 2.96  82 2.98
  81  0.083  0.917  0.238-  68 2.90  13 2.91  69 2.91  80 2.93  82 2.93 125 2.93  25 2.93  93 2.94
                            26 2.95  92 2.95  37 2.95  79 2.95
  82  0.249  0.835  0.237-  71 2.88  69 2.89  94 2.90  70 2.91  26 2.92  81 2.93  84 2.94  83 2.94
                            95 2.95  78 2.95  93 2.96  80 2.98
  83  0.416  0.751  0.237-  72 2.88  70 2.89  90 2.90 158 2.90  84 2.93 187 2.93 175 2.94  82 2.94
                           171 2.95  95 2.95  78 2.96 169 2.96
  84  0.333  0.917  0.238-  16 2.90  71 2.91  72 2.91  28 2.93  83 2.93  29 2.93  82 2.94 175 2.94
                            26 2.94  40 2.94  96 2.95  95 2.95
  85  1.000  0.500  0.358-  86 2.93 185 2.93 144 2.93  45 2.94  44 2.94  73 2.94 173 2.94 186 2.94
                            33 2.94
  86  0.082  0.583  0.359-  87 2.93  88 2.93  85 2.93 186 2.94  45 2.94  91 2.95  73 2.95  75 2.95
                            74 2.95
  87  0.164  0.668  0.357-  91 2.92  75 2.93  86 2.93  92 2.93  80 2.94  89 2.95  94 2.95  76 2.95
                            88 2.96
  88  0.248  0.500  0.357-  45 2.92  74 2.93  86 2.93  76 2.94  47 2.94  36 2.94  89 2.94  87 2.96
                            48 2.96
  89  0.331  0.585  0.355-  76 2.90  78 2.91  77 2.92  88 2.94  94 2.95  87 2.95  48 2.96  90 2.96
                           181 2.98
  90  0.416  0.668  0.354-  83 2.90  78 2.90 169 2.91  95 2.93 187 2.93 181 2.94  89 2.96 182 2.97
                            94 2.98
  91  0.998  0.751  0.359-  87 2.92 191 2.93 186 2.93 192 2.94 179 2.94  92 2.95  86 2.95  79 2.95
                            75 2.96
  92  0.081  0.834  0.358-  94 2.92  37 2.92 192 2.92  87 2.93  79 2.94  91 2.95  81 2.95  93 2.95
                            80 2.96
  93  0.166  0.918  0.358-  38 2.92  94 2.93  37 2.93  40 2.94  95 2.94  26 2.94  81 2.94  92 2.95
                            82 2.96
  94  0.247  0.752  0.354-  80 2.88  82 2.90  78 2.91  92 2.92  93 2.93  89 2.95  87 2.95  95 2.96
                            90 2.98
  95  0.333  0.834  0.358-  40 2.93  90 2.93 187 2.94  93 2.94  96 2.94  84 2.95  82 2.95  83 2.95
                            94 2.96
  96  0.417  0.917  0.359- 187 2.93 188 2.93  40 2.94  41 2.94  95 2.94 133 2.94  84 2.95  29 2.95
                           175 2.95
  97  0.500  0.000  0.000-   6 2.94  98 2.94 153 2.94 109 2.94  60 2.94   5 2.94 152 2.94 164 2.94
                            18 2.94
  98  0.583  0.083  0.000-   6 2.94 103 2.94  97 2.94 110 2.94  99 2.94 109 2.94 100 2.94 153 2.94
                           111 2.94
  99  0.667  0.167  0.000- 100 2.94 111 2.94 101 2.94  98 2.94 113 2.94 115 2.94 106 2.94 103 2.94
                           104 2.94
 100  0.750  0.000  0.000-  99 2.94 112 2.94 111 2.94 153 2.94 101 2.94  98 2.94 156 2.94 155 2.94
                           167 2.94
 101  0.833  0.083  0.000- 106 2.94 102 2.94  99 2.94 113 2.94 114 2.94   1 2.94 100 2.94 156 2.94
                           112 2.94
 102  0.917  0.167  0.000-   1 2.94   2 2.94 101 2.94 114 2.94  14 2.94 106 2.94   7 2.94 107 2.94
                           118 2.94
 103  0.500  0.250  0.000-  98 2.94  11 2.94   6 2.94 110 2.94  24 2.94  99 2.94 104 2.94  12 2.94
                           115 2.94
 104  0.583  0.333  0.000- 145 2.94 117 2.94 116 2.94 115 2.94 105 2.94 106 2.94  12 2.94 103 2.94
                            99 2.94
 105  0.667  0.417  0.000- 146 2.94 145 2.94 148 2.94 157 2.94 119 2.94 107 2.94 104 2.94 106 2.94
                           117 2.94
 106  0.750  0.250  0.000- 101 2.94 118 2.94 102 2.94 104 2.94  99 2.94 107 2.94 105 2.94 113 2.94
                           117 2.94
 107  0.833  0.333  0.000- 148 2.94 108 2.94 120 2.94 105 2.94   7 2.94 106 2.94 102 2.94 119 2.94
                           118 2.94
 108  0.917  0.417  0.000- 148 2.94 149 2.94 107 2.94 160 2.94  49 2.94 120 2.94   8 2.94   7 2.94
                            20 2.94
 109  0.583  0.000  0.120- 177 2.90 122 2.90 121 2.91 110 2.94 167 2.94  97 2.94  98 2.94 153 2.94
                            18 2.94 164 2.94 111 2.94 165 2.94
 110  0.500  0.167  0.120- 121 2.90  35 2.90 123 2.90 109 2.94  98 2.94  18 2.94 111 2.94   6 2.94
                           103 2.94  22 2.94 115 2.94  24 2.94
 111  0.667  0.083  0.120- 123 2.89 122 2.91 124 2.91 113 2.94 115 2.94 112 2.94  99 2.94 110 2.94
                           100 2.94 109 2.94 167 2.94  98 2.94
 112  0.833  0.000  0.120- 124 2.90 125 2.91 180 2.91 113 2.94 111 2.94 100 2.94 114 2.94 167 2.94
                            68 2.94 168 2.94 101 2.94 156 2.94
 113  0.750  0.167  0.120- 128 2.90 124 2.91 126 2.91 111 2.94 112 2.94 115 2.94 114 2.94 101 2.94
                            99 2.94 118 2.94 117 2.94 106 2.94
 114  0.917  0.083  0.120- 125 2.91 126 2.91  25 2.91 118 2.94  14 2.94 113 2.94 102 2.94 101 2.94
                            13 2.94 112 2.94  68 2.94   1 2.94
 115  0.583  0.250  0.120- 127 2.88 123 2.90 128 2.91 111 2.94 113 2.94 117 2.94  99 2.94 104 2.94
                            24 2.94 110 2.94 116 2.94 103 2.94
 116  0.500  0.417  0.120- 127 2.88  77 2.90 129 2.91 157 2.94  66 2.94 117 2.94 145 2.94  64 2.94
                           104 2.94  24 2.94 115 2.94  12 2.94
 117  0.667  0.333  0.120- 129 2.90 128 2.90 130 2.91 157 2.94 116 2.94 115 2.94 104 2.94 118 2.94
                           119 2.94 113 2.94 105 2.94 106 2.94
 118  0.833  0.250  0.120- 130 2.90 126 2.91 131 2.91 114 2.94 106 2.94 117 2.94 113 2.94  14 2.94
                           120 2.94 119 2.94 102 2.94 107 2.94
 119  0.750  0.417  0.120- 170 2.89 130 2.91 132 2.91 159 2.94 160 2.94 157 2.94 148 2.94 105 2.94
                           117 2.94 120 2.94 118 2.94 107 2.94
 120  0.917  0.333  0.120- 132 2.90  31 2.91 131 2.91 160 2.94 107 2.94 108 2.94  20 2.94  19 2.94
                           119 2.94 118 2.94  14 2.94   7 2.94
 121  0.500  0.083  0.238- 110 2.90 109 2.91  18 2.91 177 2.93 122 2.94  29 2.94 123 2.94  42 2.94
                            35 2.94  30 2.94 134 2.95 133 2.95
 122  0.667  1.000  0.238- 109 2.90 167 2.91 111 2.91 180 2.93 123 2.93 177 2.93 178 2.93 121 2.94
                           124 2.94 136 2.95 189 2.95 134 2.95
 123  0.584  0.166  0.237- 111 2.89 115 2.90 110 2.90 139 2.90 122 2.93 124 2.93 121 2.94 128 2.94
                           127 2.94 134 2.95 135 2.96  35 2.96
 124  0.750  0.083  0.238- 112 2.90 113 2.91 111 2.91 180 2.93 125 2.93 123 2.93 128 2.94 137 2.94
                           126 2.94 122 2.94 136 2.94 135 2.95
 125  0.917  0.000  0.238- 114 2.91 112 2.91  68 2.91 124 2.93  79 2.93  81 2.93 126 2.94  25 2.94
                            37 2.94 137 2.94 180 2.94 192 2.95
 126  0.834  0.167  0.238- 114 2.91 118 2.91 113 2.91 130 2.93 128 2.93  25 2.93 131 2.94 125 2.94
                           138 2.94 124 2.94 137 2.94 142 2.95
 127  0.501  0.333  0.237- 115 2.88 116 2.88  24 2.89  48 2.90 139 2.91 128 2.93 129 2.93 123 2.94
                            35 2.95  77 2.96 140 2.96  36 2.98
 128  0.667  0.250  0.238- 113 2.90 117 2.90 115 2.91 127 2.93 126 2.93 130 2.94 124 2.94 123 2.94
                           135 2.94 129 2.94 140 2.95 142 2.95
 129  0.584  0.417  0.238- 157 2.90 117 2.90 116 2.91 140 2.93 170 2.93 127 2.93 169 2.94 130 2.94
                           181 2.94 128 2.94 141 2.95  77 2.95
 130  0.750  0.333  0.238- 118 2.90 119 2.91 117 2.91 170 2.93 126 2.93 132 2.93 128 2.94 131 2.94
                           129 2.94 143 2.94 142 2.95 141 2.95
 131  0.917  0.250  0.238-  14 2.90 120 2.91 118 2.91  27 2.93 132 2.93  25 2.93 126 2.94  31 2.94
                           130 2.94 138 2.94 143 2.95  43 2.95
 132  0.834  0.416  0.238- 120 2.90 119 2.91 160 2.91  31 2.93 131 2.93 173 2.93 130 2.93 170 2.94
                           172 2.94 184 2.94 144 2.95 143 2.95
 133  0.500  0.000  0.358- 189 2.93  41 2.93  42 2.94 188 2.94 134 2.94  29 2.94  96 2.94 177 2.95
                           121 2.95
 134  0.583  0.084  0.358- 136 2.93  42 2.93 139 2.94 189 2.94 133 2.94 135 2.94 123 2.95 121 2.95
                           122 2.95
 135  0.667  0.167  0.358- 139 2.93 142 2.93 137 2.93 136 2.94 128 2.94 134 2.94 140 2.94 124 2.95
                           123 2.96
 136  0.749  0.001  0.358- 134 2.93 192 2.93 135 2.94 189 2.94 191 2.94 137 2.94 124 2.94 122 2.95
                           180 2.95
 137  0.833  0.083  0.358- 135 2.93  37 2.93 192 2.93 142 2.94 138 2.94 124 2.94 136 2.94 126 2.94
                           125 2.94
 138  0.917  0.167  0.358-  37 2.93 143 2.93  38 2.94  43 2.94 142 2.94 137 2.94 126 2.94  25 2.94
                           131 2.94
 139  0.501  0.250  0.355- 123 2.90 127 2.91  35 2.91 135 2.93 134 2.94  48 2.94 140 2.94  42 2.95
                            47 2.96
 140  0.584  0.334  0.358- 141 2.92 129 2.93 142 2.93 139 2.94 181 2.94 135 2.94 128 2.95  48 2.96
                           127 2.96
 141  0.667  0.416  0.359- 140 2.92 182 2.93 142 2.93 184 2.94 143 2.94 181 2.95 129 2.95 130 2.95
                           170 2.95
 142  0.750  0.250  0.359- 135 2.93 143 2.93 141 2.93 140 2.93 137 2.94 138 2.94 130 2.95 126 2.95
                           128 2.95
 143  0.834  0.333  0.358- 142 2.93 138 2.93 144 2.94 184 2.94  43 2.94 141 2.94 130 2.94 131 2.95
                           132 2.95
 144  0.917  0.416  0.358-  85 2.93  43 2.93 143 2.94  44 2.94 184 2.94  31 2.94 185 2.94 132 2.95
                           173 2.95
 145  0.500  0.500  0.000- 104 2.94 116 2.94 105 2.94  12 2.94 157 2.94  66 2.94 146 2.94  53 2.94
                            54 2.94
 146  0.583  0.583  0.000- 105 2.94 159 2.94 147 2.94  54 2.94 148 2.94 145 2.94 151 2.94 158 2.94
                           157 2.94
 147  0.667  0.667  0.000- 152 2.94 149 2.94 154 2.94 161 2.94 146 2.94 151 2.94 148 2.94 159 2.94
                           163 2.94
 148  0.750  0.500  0.000- 108 2.94 107 2.94 149 2.94 105 2.94 119 2.94 160 2.94 146 2.94 147 2.94
                           159 2.94
 149  0.833  0.583  0.000- 108 2.94 148 2.94 147 2.94 162 2.94 161 2.94 160 2.94 150 2.94  49 2.94
                           154 2.94
 150  0.917  0.667  0.000- 155 2.94  55 2.94 149 2.94 154 2.94  50 2.94  49 2.94 162 2.94 166 2.94
                            62 2.94
 151  0.500  0.750  0.000-  60 2.94  59 2.94 152 2.94  72 2.94 163 2.94  54 2.94 147 2.94 146 2.94
                           158 2.94
 152  0.583  0.833  0.000- 154 2.94 147 2.94 153 2.94 151 2.94 163 2.94 165 2.94  60 2.94  97 2.94
                           164 2.94
 153  0.667  0.917  0.000- 154 2.94 152 2.94  97 2.94 167 2.94 165 2.94 109 2.94 100 2.94 155 2.94
                            98 2.94
 154  0.750  0.750  0.000- 152 2.94 153 2.94 147 2.94 165 2.94 155 2.94 166 2.94 161 2.94 150 2.94
                           149 2.94
 155  0.833  0.833  0.000- 150 2.94  55 2.94 154 2.94 166 2.94 168 2.94 156 2.94 153 2.94 100 2.94
                           167 2.94
 156  0.917  0.917  0.000-  55 2.94  68 2.94 155 2.94   1 2.94 100 2.94  56 2.94 101 2.94 168 2.94
                           112 2.94
 157  0.583  0.500  0.120- 169 2.89 129 2.90 170 2.91 116 2.94 117 2.94  66 2.94 119 2.94 105 2.94
                           145 2.94 159 2.94 158 2.94 146 2.94
 158  0.500  0.667  0.120- 169 2.89 171 2.90  83 2.90  72 2.94  66 2.94  70 2.94  54 2.94 159 2.94
                           163 2.94 157 2.94 146 2.94 151 2.94
 159  0.667  0.583  0.120- 172 2.90 171 2.90 170 2.91 119 2.94 146 2.94 161 2.94 157 2.94 158 2.94
                           160 2.94 163 2.94 147 2.94 148 2.94
 160  0.833  0.500  0.120- 172 2.89 173 2.90 132 2.91 120 2.94 162 2.94 108 2.94 119 2.94  20 2.94
                           148 2.94 149 2.94 159 2.94 161 2.94
 161  0.750  0.667  0.120- 174 2.90 172 2.90 176 2.90 165 2.94 162 2.94 166 2.94 147 2.94 149 2.94
                           154 2.94 163 2.94 159 2.94 160 2.94
 162  0.917  0.583  0.120-  73 2.90 174 2.91 173 2.91  20 2.94 160 2.94 161 2.94 149 2.94 166 2.94
                           150 2.94  49 2.94  62 2.94  61 2.94
 163  0.583  0.750  0.120- 171 2.90 176 2.90 175 2.91 164 2.94 165 2.94  72 2.94 152 2.94 151 2.94
                           161 2.94 158 2.94 159 2.94 147 2.94
 164  0.500  0.917  0.120- 175 2.90 177 2.91  29 2.91 163 2.94  16 2.94  60 2.94 109 2.94  72 2.94
                           165 2.94  18 2.94  97 2.94 152 2.94
 165  0.667  0.833  0.120- 176 2.89 178 2.90 177 2.91 166 2.94 161 2.94 167 2.94 154 2.94 163 2.94
                           152 2.94 153 2.94 164 2.94 109 2.94
 166  0.833  0.750  0.120- 179 2.90 178 2.91 174 2.91 165 2.94 167 2.94 161 2.94 168 2.94 155 2.94
                           154 2.94 162 2.94 150 2.94  62 2.94
 167  0.750  0.917  0.120- 180 2.90 122 2.91 178 2.91 166 2.94 165 2.94 109 2.94 153 2.94 112 2.94
                           168 2.94 111 2.94 100 2.94 155 2.94
 168  0.917  0.833  0.120-  79 2.89 179 2.91 180 2.91  62 2.94  67 2.94 166 2.94  55 2.94 155 2.94
                            68 2.94 167 2.94 112 2.94 156 2.94
 169  0.500  0.583  0.237- 158 2.89 157 2.89  66 2.90  90 2.91 182 2.93 181 2.93 171 2.94  77 2.94
                           129 2.94 170 2.94  83 2.96  78 2.97
 170  0.667  0.499  0.238- 119 2.89 159 2.91 157 2.91 182 2.92 129 2.93 130 2.93 172 2.93 132 2.94
                           184 2.94 169 2.94 141 2.95 171 2.95
 171  0.583  0.667  0.238- 163 2.90 159 2.90 158 2.90 183 2.92 182 2.93 169 2.94 187 2.94 176 2.94
                           175 2.94 172 2.95  83 2.95 170 2.95
 172  0.750  0.583  0.237- 160 2.89 159 2.90 161 2.90 183 2.92 174 2.93 173 2.93 170 2.93 132 2.94
                           171 2.95 184 2.95 185 2.95 176 2.96
 173  0.917  0.500  0.238-  20 2.90 160 2.90 162 2.91  73 2.93  33 2.93 172 2.93 132 2.93  31 2.94
                            85 2.94 185 2.95 174 2.95 144 2.95
 174  0.833  0.667  0.238- 161 2.90 162 2.91 166 2.91  73 2.93 172 2.93 176 2.93 179 2.94 186 2.94
                           178 2.94 185 2.94 173 2.95 190 2.95
 175  0.500  0.834  0.238- 164 2.90 163 2.91  72 2.91 187 2.93 177 2.93 176 2.93  83 2.94  29 2.94
                            84 2.94 171 2.94 188 2.94  96 2.95
 176  0.667  0.750  0.237- 165 2.89 163 2.90 161 2.90 183 2.92 178 2.93 174 2.93 175 2.93 177 2.94
                           171 2.94 190 2.95 188 2.96 172 2.96
 177  0.583  0.917  0.238- 109 2.90 164 2.91 165 2.91 122 2.93 175 2.93 121 2.93  29 2.93 178 2.94
                           176 2.94 189 2.94 133 2.95 188 2.95
 178  0.750  0.833  0.238- 165 2.90 167 2.91 166 2.91 179 2.93 176 2.93 122 2.93 177 2.94 191 2.94
                           180 2.94 174 2.94 190 2.95 189 2.96
 179  0.916  0.750  0.238- 166 2.90 168 2.91  62 2.91 178 2.93  75 2.93 174 2.94  79 2.94 180 2.94
                            91 2.94 191 2.94 186 2.95  73 2.95
 180  0.833  0.917  0.238- 167 2.90 112 2.91 168 2.91  79 2.93 124 2.93 122 2.93 178 2.94 179 2.94
                           192 2.94 125 2.94 191 2.95 136 2.95
 181  0.500  0.501  0.357- 182 2.93 169 2.93 140 2.94 129 2.94  90 2.94  77 2.94 141 2.95  48 2.96
                            89 2.98
 182  0.584  0.583  0.356- 170 2.92 169 2.93 171 2.93 181 2.93 141 2.93 184 2.94 183 2.95 187 2.96
                            90 2.97
 183  0.667  0.667  0.356- 172 2.92 176 2.92 171 2.92 190 2.93 185 2.93 188 2.94 184 2.95 182 2.95
                           187 2.96
 184  0.750  0.500  0.358- 185 2.94 182 2.94 143 2.94 144 2.94 141 2.94 132 2.94 170 2.94 183 2.95
                           172 2.95
 185  0.833  0.583  0.358- 186 2.93 183 2.93  85 2.93 184 2.94 144 2.94 174 2.94 173 2.95 190 2.95
                           172 2.95
 186  0.916  0.667  0.358- 185 2.93 190 2.93  91 2.93  86 2.94 174 2.94  73 2.94  85 2.94 179 2.95
                           191 2.95
 187  0.499  0.750  0.357-  96 2.93 175 2.93  90 2.93  83 2.93 171 2.94 188 2.94  95 2.94 182 2.96
                           183 2.96
 188  0.583  0.833  0.358-  96 2.93 190 2.93 189 2.94 187 2.94 133 2.94 183 2.94 175 2.94 177 2.95
                           176 2.96
 189  0.666  0.917  0.359- 133 2.93 191 2.93 134 2.94 188 2.94 190 2.94 136 2.94 177 2.94 122 2.95
                           178 2.96
 190  0.749  0.750  0.358- 191 2.93 183 2.93 186 2.93 188 2.93 189 2.94 178 2.95 176 2.95 174 2.95
                           185 2.95
 191  0.832  0.834  0.358-  91 2.93 190 2.93 189 2.93 178 2.94 136 2.94 192 2.94 179 2.94 186 2.95
                           180 2.95
 192  0.916  0.917  0.358-  92 2.92 136 2.93 137 2.93  91 2.94 180 2.94 191 2.94  79 2.95  37 2.95
                           125 2.95
 193  0.571  0.567  0.521- 204 1.23
 194  0.525  0.695  0.518- 204 1.37 205 1.44
 195  0.369  0.369  0.526- 206 1.22
 196  0.497  0.286  0.516- 206 1.37 207 1.44
 197  0.280  0.735  0.519- 216 1.10 215 1.10 217 1.11 198 1.50
 198  0.326  0.650  0.515- 199 1.40 203 1.42 197 1.50
 199  0.291  0.606  0.509- 210 1.09 198 1.40 200 1.40
 200  0.332  0.526  0.508- 211 1.09 199 1.40 201 1.40
 201  0.411  0.489  0.512- 209 1.40 200 1.40 202 1.41
 202  0.448  0.531  0.514- 212 1.09 203 1.40 201 1.41
 203  0.407  0.611  0.516- 208 1.40 202 1.40 198 1.42
 204  0.517  0.632  0.519- 193 1.23 194 1.37 208 1.38
 205  0.602  0.680  0.522- 218 1.10 219 1.10 220 1.10 194 1.44
 206  0.434  0.357  0.519- 195 1.22 196 1.37 209 1.38
 207  0.482  0.225  0.524- 223 1.10 222 1.10 221 1.10 196 1.44
 208  0.441  0.655  0.518- 213 1.02 204 1.38 203 1.40
 209  0.457  0.410  0.511- 214 1.02 206 1.38 201 1.40
 210  0.229  0.635  0.506- 199 1.09
 211  0.302  0.494  0.505- 200 1.09
 212  0.510  0.503  0.516- 202 1.09
 213  0.406  0.713  0.515- 208 1.02
 214  0.513  0.389  0.505- 209 1.02
 215  0.288  0.756  0.568- 197 1.10
 216  0.219  0.754  0.513- 197 1.10
 217  0.295  0.763  0.479- 197 1.11
 218  0.599  0.735  0.511- 205 1.10
 219  0.625  0.660  0.572- 205 1.10
 220  0.637  0.637  0.485- 205 1.10
 221  0.463  0.223  0.575- 207 1.10
 222  0.438  0.231  0.488- 207 1.10
 223  0.536  0.173  0.513- 207 1.10
 
  LATTYP: Found a hexagonal cell.
 ALAT       =    20.3604714350
 C/A-ratio  =     0.9822955261
  
  Lattice vectors:
  
 A1 = (  10.1802357175, -17.6326854957,   0.0000000000)
 A2 = ( -20.3604714350,   0.0000000000,   0.0000000000)
 A3 = (   0.0000000000,   0.0000000000, -20.0000000000)


Analysis of symmetry for initial positions (statically):
=====================================================================
 Subroutine PRICEL returns:
 Original cell was already a primitive cell.
 

 Routine SETGRP: Setting up the symmetry group for a 
 hexagonal supercell.


 Subroutine GETGRP returns: Found  1 space group operations
 (whereof  1 operations were pure point group operations)
 out of a pool of 24 trial point group operations.


The static configuration has the point symmetry C_1 .


Analysis of symmetry for dynamics (positions and initial velocities):
=====================================================================
 Subroutine PRICEL returns:
 Original cell was already a primitive cell.
 

 Routine SETGRP: Setting up the symmetry group for a 
 hexagonal supercell.


 Subroutine GETGRP returns: Found  1 space group operations
 (whereof  1 operations were pure point group operations)
 out of a pool of 24 trial point group operations.


The dynamic configuration has the point symmetry C_1 .


Analysis of constrained symmetry for selective dynamics:
=====================================================================
 Subroutine PRICEL returns:
 Original cell was already a primitive cell.
 

 Routine SETGRP: Setting up the symmetry group for a 
 hexagonal supercell.


 Subroutine GETGRP returns: Found  1 space group operations
 (whereof  1 operations were pure point group operations)
 out of a pool of 24 trial point group operations.


The constrained configuration has the point symmetry C_1 .


 Subroutine INISYM returns: Found  1 space group operations
 (whereof  1 operations are pure point group operations),
 and found     1 'primitive' translations

 
 
 KPOINTS: K-POINTS                                

Automatic generation of k-mesh.
Space group operators:
 irot       det(A)        alpha          n_x          n_y          n_z        tau_x        tau_y        tau_z
    1     1.000000     0.000000     1.000000     0.000000     0.000000     0.000000     0.000000     0.000000
 
 Subroutine IBZKPT returns following result:
 ===========================================
 
 Found      5 irreducible k-points:
 
 Following reciprocal coordinates:
            Coordinates               Weight
  0.000000  0.000000  0.000000      1.000000
  0.333333  0.000000  0.000000      2.000000
  0.000000  0.333333  0.000000      2.000000
  0.333333  0.333333  0.000000      2.000000
 -0.333333  0.333333  0.000000      2.000000
 
 Following cartesian coordinates:
            Coordinates               Weight
  0.000000  0.000000  0.000000      1.000000
  0.016372 -0.009452  0.000000      2.000000
  0.000000  0.018904  0.000000      2.000000
  0.016372  0.009452  0.000000      2.000000
 -0.016372  0.028356  0.000000      2.000000
 


--------------------------------------------------------------------------------------------------------




 Dimension of arrays:
   k-points           NKPTS =      5   k-points in BZ     NKDIM =      5   number of bands    NBANDS=   1332
   number of dos      NEDOS =    301   number of ions     NIONS =    223
   non local maximal  LDIM  =      6   non local SUM 2l+1 LMDIM =     18
   total plane-waves  NPLWV = ******
   max r-space proj   IRMAX =   2164   max aug-charges    IRDMAX=  10927
   dimension x,y,z NGX =   108 NGY =  108 NGZ =  108
   dimension x,y,z NGXF=   216 NGYF=  216 NGZF=  216
   support grid    NGXF=   216 NGYF=  216 NGZF=  216
   ions per type =             192   4  11   2  14
   NGX,Y,Z   is equivalent  to a cutoff of   8.82,  8.82,  8.98 a.u.
   NGXF,Y,Z  is equivalent  to a cutoff of  17.64, 17.64, 17.95 a.u.

 SYSTEM =  x                                       
 POSCAR =  Au  O  C  N  H                          

 Startparameter for this run:
   NWRITE =      0    write-flag & timer
   PREC   = normal    normal or accurate (medium, high low for compatibility)
   ISTART =      0    job   : 0-new  1-cont  2-samecut
   ICHARG =      2    charge: 1-file 2-atom 10-const
   ISPIN  =      1    spin polarized calculation?
   LNONCOLLINEAR =      F non collinear calculations
   LSORBIT =      F    spin-orbit coupling
   INIWAV =      1    electr: 0-lowe 1-rand  2-diag
   LASPH  =      F    aspherical Exc in radial PAW
   METAGGA=      F    non-selfconsistent MetaGGA calc.

 Electronic Relaxation 1
   ENCUT  =  450.0 eV  33.07 Ry    5.75 a.u.  35.22 35.22 34.59*2*pi/ulx,y,z
   ENINI  =  450.0     initial cutoff
   ENAUG  =  644.9 eV  augmentation charge cutoff
   NELM   =     50;   NELMIN=  5; NELMDL= -7     # of ELM steps 
   EDIFF  = 0.1E-04   stopping-criterion for ELM
   LREAL  =      T    real-space projection
   NLSPLINE    = F    spline interpolate recip. space projectors
   LCOMPAT=      F    compatible to vasp.4.4
   GGA_COMPAT  = T    GGA compatible to vasp.4.4-vasp.4.6
   LMAXPAW     = -100 max onsite density
   LMAXMIX     =    2 max onsite mixed and CHGCAR
   VOSKOWN=      0    Vosko Wilk Nusair interpolation
   ROPT   =   -0.00050  -0.00050  -0.00050  -0.00050
   ROPT   =   -0.00050
 Ionic relaxation
   EDIFFG = -.2E-01   stopping-criterion for IOM
   NSW    =    300    number of steps for IOM
   NBLOCK =      1;   KBLOCK =    300    inner block; outer block 
   IBRION =      2    ionic relax: 0-MD 1-quasi-New 2-CG
   NFREE  =      2    steps in history (QN), initial steepest desc. (CG)
   ISIF   =      2    stress and relaxation
   IWAVPR =     11    prediction:  0-non 1-charg 2-wave 3-comb
   ISYM   =      2    0-nonsym 1-usesym 2-fastsym
   LCORR  =      T    Harris-Foulkes like correction to forces

   POTIM  = 0.1500    time-step for ionic-motion
   TEIN   =    0.0    initial temperature
   TEBEG  =    0.0;   TEEND  =   0.0 temperature during run
   SMASS  =  -3.00    Nose mass-parameter (am)
   estimated Nose-frequenzy (Omega)   =  0.10E-29 period in steps =****** mass=  -0.947E-26a.u.
   SCALEE = 1.0000    scale energy and forces
   NPACO  =    256;   APACO  = 16.0  distance and # of slots for P.C.
   PSTRESS=    0.0 pullay stress

  Mass of Ions in am
   POMASS = 196.97 16.00 12.01 14.00  1.00
  Ionic Valenz
   ZVAL   =  11.00  6.00  4.00  5.00  1.00
  Atomic Wigner-Seitz radii
   RWIGS  =  -1.00 -1.00 -1.00 -1.00 -1.00
  virtual crystal weights 
   VCA    =   1.00  1.00  1.00  1.00  1.00
   NELECT =    2204.0000    total number of electrons
   NUPDOWN=      -1.0000    fix difference up-down

 DOS related values:
   EMIN   =  10.00;   EMAX   =-10.00  energy-range for DOS
   EFERMI =   0.00
   ISMEAR =     0;   SIGMA  =   0.03  broadening in eV -4-tet -1-fermi 0-gaus

 Electronic relaxation 2 (details)
   IALGO  =     68    algorithm
   LDIAG  =      T    sub-space diagonalisation (order eigenvalues)
   LSUBROT=      F    optimize rotation matrix (better conditioning)
   TURBO    =      0    0=normal 1=particle mesh
   IRESTART =      0    0=no restart 2=restart with 2 vectors
   NREBOOT  =      0    no. of reboots
   NMIN     =      0    reboot dimension
   EREF     =   0.00    reference energy to select bands
   IMIX   =      4    mixing-type and parameters
     AMIX     =   0.40;   BMIX     =  1.00
     AMIX_MAG =   1.60;   BMIX_MAG =  1.00
     AMIN     =   0.10
     WC   =   100.;   INIMIX=   1;  MIXPRE=   1;  MAXMIX= -45

 Intra band minimization:
   WEIMIN = 0.0010     energy-eigenvalue tresh-hold
   EBREAK =  0.19E-08  absolut break condition
   DEPER  =   0.30     relativ break condition  

   TIME   =   0.40     timestep for ELM

  volume/ion in A,a.u.               =      32.20       217.28
  Fermi-wavevector in a.u.,A,eV,Ry     =   1.104333  2.086886 16.592995  1.219551
  Thomas-Fermi vector in A             =   2.240804
 
 Write flags
   LWAVE        =      F    write WAVECAR
   LDOWNSAMPLE  =      F    k-point downsampling of WAVECAR
   LCHARG       =      F    write CHGCAR
   LVTOT        =      F    write LOCPOT, total local potential
   LVHAR        =      F    write LOCPOT, Hartree potential only
   LELF         =      F    write electronic localiz. function (ELF)
   LORBIT       =      0    0 simple, 1 ext, 2 COOP (PROOUT), +10 PAW based schemes


 Dipole corrections
   LMONO  =      F    monopole corrections only (constant potential shift)
   LDIPOL =      T    correct potential (dipole corrections)
   IDIPOL =      3    1-x, 2-y, 3-z, 4-all directions 
   EPSILON=  1.0000000 bulk dielectric constant

 Exchange correlation treatment:
   GGA     =    PE    GGA type
   LEXCH   =     8    internal setting for exchange type
   VOSKOWN=      0    Vosko Wilk Nusair interpolation
   LHFCALC =     F    Hartree Fock is set to
   LHFONE  =     F    Hartree Fock one center treatment
   AEXX    =    0.0000 exact exchange contribution

 Linear response parameters
   LEPSILON=     F    determine dielectric tensor
   LRPA    =     F    only Hartree local field effects (RPA)
   LNABLA  =     F    use nabla operator in PAW spheres
   LVEL    =     F    velocity operator in full k-point grid
   LINTERFAST=   F  fast interpolation
   KINTER  =     0    interpolate to denser k-point grid
   CSHIFT  =0.1000    complex shift for real part using Kramers Kronig
   OMEGAMAX=  -1.0    maximum frequency
   DEG_THRESHOLD= 0.2000000E-02 threshold for treating states as degnerate
   RTIME   =   -0.100 relaxation time in fs
  (WPLASMAI=    0.000 imaginary part of plasma frequency in eV, 0.658/RTIME)
   DFIELD  = 0.0000000 0.0000000 0.0000000 field for delta impulse in time
 
 Orbital magnetization related:
   ORBITALMAG=     F  switch on orbital magnetization
   LCHIMAG   =     F  perturbation theory with respect to B field
   DQ        =  0.001000  dq finite difference perturbation B field
   LLRAUG    =     F  two centre corrections for induced B field



--------------------------------------------------------------------------------------------------------


 conjugate gradient relaxation of ions
   using selective dynamics as specified on POSCAR
 charge density and potential will be updated during run
 non-spin polarized calculation
 RMM-DIIS sequential band-by-band and
  variant of blocked Davidson during initial phase
 perform sub-space diagonalisation
    before iterative eigenvector-optimisation
 modified Broyden-mixing scheme, WC =      100.0
 initial mixing is a Kerker type mixing with AMIX =  0.4000 and BMIX =      1.0000
 Hartree-type preconditioning will be used
 using additional bands          230
 real space projection scheme for non local part
 use partial core corrections
 calculate Harris-corrections to forces 
   (improved forces if not selfconsistent)
 use gradient corrections 
 use of overlap-Matrix (Vanderbilt PP)
 Gauss-broadening in eV      SIGMA  =   0.03


--------------------------------------------------------------------------------------------------------


  energy-cutoff  :      450.00
  volume of cell :     7180.20
      direct lattice vectors                 reciprocal lattice vectors
    20.360471435  0.000000000  0.000000000     0.049114776 -0.028356429  0.000000000
    10.180235718 17.632685496  0.000000000     0.000000000  0.056712859  0.000000000
     0.000000000  0.000000000 20.000000000     0.000000000  0.000000000  0.050000000

  length of vectors
    20.360471435 20.360471435 20.000000000     0.056712859  0.056712859  0.050000000


 
 k-points in units of 2pi/SCALE and weight: K-POINTS                                
   0.00000000  0.00000000  0.00000000       0.111
   0.01637159 -0.00945214  0.00000000       0.222
   0.00000000  0.01890429  0.00000000       0.222
   0.01637159  0.00945214  0.00000000       0.222
  -0.01637159  0.02835643  0.00000000       0.222
 
 k-points in reciprocal lattice and weights: K-POINTS                                
   0.00000000  0.00000000  0.00000000       0.111
   0.33333333  0.00000000  0.00000000       0.222
   0.00000000  0.33333333  0.00000000       0.222
   0.33333333  0.33333333  0.00000000       0.222
  -0.33333333  0.33333333  0.00000000       0.222
 
 position of ions in fractional coordinates (direct lattice) 
   0.00000000  0.00000000  0.00000000
   0.08333333  0.08333333  0.00000000
   0.16666667  0.16666667  0.00000000
   0.25000000  0.00000000  0.00000000
   0.33333333  0.08333333  0.00000000
   0.41666667  0.16666667  0.00000000
   0.00000000  0.25000000  0.00000000
   0.08333333  0.33333333  0.00000000
   0.16666667  0.41666667  0.00000000
   0.25000000  0.25000000  0.00000000
   0.33333333  0.33333333  0.00000000
   0.41666667  0.41666667  0.00000000
   0.08333333  0.00000000  0.11997523
   0.00000000  0.16666667  0.11997523
   0.16666667  0.08333333  0.11997523
   0.33333333  0.00000000  0.11997523
   0.25000000  0.16666667  0.11997523
   0.41666667  0.08333333  0.11997523
   0.08333333  0.25000000  0.11997523
   1.00000000  0.41666667  0.11997523
   0.16666667  0.33333333  0.11997523
   0.33333333  0.25000000  0.11997523
   0.25000000  0.41666667  0.11997523
   0.41666667  0.33333333  0.11997523
   0.00005479  0.08325416  0.23798991
   0.16629824  0.00058024  0.23787711
   0.08326524  0.16677561  0.23794322
   0.24993031  0.08353917  0.23804642
   0.41672137  0.00031005  0.23816483
   0.33323863  0.16678834  0.23792341
   0.00021346  0.33307200  0.23798628
   0.16679605  0.24984892  0.23798389
   0.08308605  0.41633432  0.23804005
   0.24964978  0.33338198  0.23797742
   0.41635380  0.25023545  0.23756817
   0.33209430  0.41684594  0.23713697
   0.99953652  0.00024875  0.35843943
   0.08336207  0.08343394  0.35858978
   0.16696103  0.16660334  0.35831234
   0.25000360  0.00000904  0.35843232
   0.33348524  0.08337213  0.35831485
   0.41688556  0.16688092  0.35778863
   0.00045249  0.24959355  0.35853267
   0.08352472  0.33308080  0.35841249
   0.16629637  0.41654706  0.35874409
   0.25023804  0.25002206  0.35856640
   0.33316305  0.33345132  0.35846038
   0.41606409  0.41692309  0.35368362
   1.00000000  0.50000000  0.00000000
   0.08333333  0.58333333  0.00000000
   0.16666667  0.66666667  0.00000000
   0.25000000  0.50000000  0.00000000
   0.33333333  0.58333333  0.00000000
   0.41666667  0.66666667  0.00000000
   1.00000000  0.75000000  0.00000000
   0.08333333  0.83333333  0.00000000
   0.16666667  0.91666667  0.00000000
   0.25000000  0.75000000  0.00000000
   0.33333333  0.83333333  0.00000000
   0.41666667  0.91666667  0.00000000
   0.08333333  0.50000000  0.11997523
   0.00000000  0.66666667  0.11997523
   0.16666667  0.58333333  0.11997523
   0.33333333  0.50000000  0.11997523
   0.25000000  0.66666667  0.11997523
   0.41666667  0.58333333  0.11997523
   0.08333333  0.75000000  0.11997523
   1.00000000  0.91666667  0.11997523
   0.16666667  0.83333333  0.11997523
   0.33333333  0.75000000  0.11997523
   0.25000000  0.91666667  0.11997523
   0.41666667  0.83333333  0.11997523
   0.99910118  0.58325963  0.23803161
   0.16542396  0.50000919  0.23765379
   0.08165049  0.66678760  0.23760246
   0.24805112  0.58381626  0.23729481
   0.41638209  0.50081671  0.23721547
   0.33204784  0.66758895  0.23673306
   0.99871426  0.83379330  0.23793833
   0.16455896  0.75072831  0.23696540
   0.08290006  0.91686399  0.23787133
   0.24919905  0.83483988  0.23706509
   0.41611566  0.75125431  0.23703657
   0.33320466  0.91746014  0.23783417
   0.99980582  0.49971627  0.35833435
   0.08220969  0.58346897  0.35861791
   0.16353511  0.66804680  0.35732653
   0.24822390  0.50020519  0.35709939
   0.33063570  0.58476622  0.35488448
   0.41563839  0.66772129  0.35439037
   0.99809360  0.75059928  0.35852595
   0.08143867  0.83437897  0.35849277
   0.16573522  0.91764765  0.35829370
   0.24682711  0.75185024  0.35382102
   0.33256413  0.83386184  0.35787112
   0.41657760  0.91669445  0.35851794
   0.50000000  0.00000000  0.00000000
   0.58333333  0.08333333  0.00000000
   0.66666667  0.16666667  0.00000000
   0.75000000  0.00000000  0.00000000
   0.83333333  0.08333333  0.00000000
   0.91666667  0.16666667  0.00000000
   0.50000000  0.25000000  0.00000000
   0.58333333  0.33333333  0.00000000
   0.66666667  0.41666667  0.00000000
   0.75000000  0.25000000  0.00000000
   0.83333333  0.33333333  0.00000000
   0.91666667  0.41666667  0.00000000
   0.58333333  0.00000000  0.11997523
   0.50000000  0.16666667  0.11997523
   0.66666667  0.08333333  0.11997523
   0.83333333  0.00000000  0.11997523
   0.75000000  0.16666667  0.11997523
   0.91666667  0.08333333  0.11997523
   0.58333333  0.25000000  0.11997523
   0.50000000  0.41666667  0.11997523
   0.66666667  0.33333333  0.11997523
   0.83333333  0.25000000  0.11997523
   0.75000000  0.41666667  0.11997523
   0.91666667  0.33333333  0.11997523
   0.50008111  0.08349502  0.23785810
   0.66658875  0.99987593  0.23789323
   0.58408085  0.16607056  0.23743986
   0.75033960  0.08312274  0.23792675
   0.91657601  0.00010380  0.23802886
   0.83362664  0.16666490  0.23810785
   0.50097283  0.33307772  0.23656680
   0.66726212  0.24968876  0.23779459
   0.58370202  0.41669486  0.23787214
   0.75046662  0.33302605  0.23798987
   0.91704863  0.24969806  0.23800557
   0.83387110  0.41605133  0.23790009
   0.49990561  0.00028267  0.35847422
   0.58326059  0.08378935  0.35833925
   0.66685473  0.16716537  0.35843022
   0.74936889  0.00050011  0.35843513
   0.83318537  0.08348793  0.35826618
   0.91687624  0.16652313  0.35833620
   0.50094572  0.25026361  0.35503425
   0.58375561  0.33416061  0.35789202
   0.66681343  0.41643937  0.35865426
   0.75019570  0.25005400  0.35856500
   0.83367704  0.33294451  0.35844165
   0.91705572  0.41603469  0.35840398
   0.50000000  0.50000000  0.00000000
   0.58333333  0.58333333  0.00000000
   0.66666667  0.66666667  0.00000000
   0.75000000  0.50000000  0.00000000
   0.83333333  0.58333333  0.00000000
   0.91666667  0.66666667  0.00000000
   0.50000000  0.75000000  0.00000000
   0.58333333  0.83333333  0.00000000
   0.66666667  0.91666667  0.00000000
   0.75000000  0.75000000  0.00000000
   0.83333333  0.83333333  0.00000000
   0.91666667  0.91666667  0.00000000
   0.58333333  0.50000000  0.11997523
   0.50000000  0.66666667  0.11997523
   0.66666667  0.58333333  0.11997523
   0.83333333  0.50000000  0.11997523
   0.75000000  0.66666667  0.11997523
   0.91666667  0.58333333  0.11997523
   0.58333333  0.75000000  0.11997523
   0.50000000  0.91666667  0.11997523
   0.66666667  0.83333333  0.11997523
   0.83333333  0.75000000  0.11997523
   0.75000000  0.91666667  0.11997523
   0.91666667  0.83333333  0.11997523
   0.50040775  0.58334107  0.23731981
   0.66736891  0.49937672  0.23772581
   0.58336957  0.66689764  0.23757679
   0.75041493  0.58275865  0.23736852
   0.91678774  0.49952852  0.23795643
   0.83288863  0.66656912  0.23793020
   0.50006363  0.83375876  0.23779269
   0.66651174  0.75046291  0.23741831
   0.58316862  0.91705530  0.23797365
   0.74963930  0.83346307  0.23793584
   0.91562821  0.75029839  0.23798201
   0.83274732  0.91698091  0.23801901
   0.49980121  0.50089812  0.35744436
   0.58400485  0.58278675  0.35646642
   0.66737809  0.66652604  0.35604188
   0.75049239  0.49950566  0.35807647
   0.83349986  0.58299497  0.35830224
   0.91573791  0.66665561  0.35816106
   0.49933805  0.75038827  0.35714888
   0.58300633  0.83343579  0.35846438
   0.66594576  0.91715238  0.35865023
   0.74945679  0.75045499  0.35846583
   0.83216067  0.83370614  0.35825269
   0.91555384  0.91712881  0.35842329
   0.57058068  0.56678851  0.52066402
   0.52474807  0.69529731  0.51835635
   0.36928616  0.36910698  0.52627231
   0.49697916  0.28622168  0.51635390
   0.28008675  0.73457196  0.51904490
   0.32623547  0.64978346  0.51452132
   0.29124804  0.60592018  0.50900357
   0.33161539  0.52648471  0.50782923
   0.41100441  0.48904950  0.51162416
   0.44846987  0.53129588  0.51388231
   0.40650872  0.61086963  0.51562052
   0.51740465  0.63213388  0.51918981
   0.60191362  0.68032380  0.52199738
   0.43393573  0.35690339  0.51875749
   0.48169763  0.22462029  0.52401712
   0.44119140  0.65534745  0.51792402
   0.45673618  0.40983037  0.51128412
   0.22931202  0.63504625  0.50595435
   0.30229868  0.49418937  0.50498943
   0.51027332  0.50273101  0.51609152
   0.40627020  0.71259498  0.51539666
   0.51337314  0.38873503  0.50498478
   0.28802867  0.75571256  0.56750962
   0.21940614  0.75388514  0.51334976
   0.29485441  0.76296140  0.47936611
   0.59862464  0.73456375  0.51071591
   0.62509226  0.66010948  0.57230774
   0.63742631  0.63715387  0.48487259
   0.46276562  0.22346173  0.57535914
   0.43763291  0.23097141  0.48849492
   0.53560775  0.17298177  0.51302333
 
 position of ions in cartesian coordinates  (Angst):
   0.00000000  0.00000000  0.00000000
   2.54505893  1.46939046  0.00000000
   5.09011786  2.93878092  0.00000000
   5.09011786  0.00000000  0.00000000
   7.63517679  1.46939046  0.00000000
  10.18023572  2.93878092  0.00000000
   2.54505893  4.40817137  0.00000000
   5.09011786  5.87756183  0.00000000
   7.63517679  7.34695229  0.00000000
   7.63517679  4.40817137  0.00000000
  10.18023572  5.87756183  0.00000000
  12.72529465  7.34695229  0.00000000
   1.69670595  0.00000000  2.39950457
   1.69670595  2.93878092  2.39950457
   4.24176488  1.46939046  2.39950457
   6.78682381  0.00000000  2.39950457
   6.78682381  2.93878092  2.39950457
   9.33188274  1.46939046  2.39950457
   4.24176488  4.40817137  2.39950457
  24.60223632  7.34695229  2.39950457
   6.78682381  5.87756183  2.39950457
   9.33188274  4.40817137  2.39950457
   9.33188274  7.34695229  2.39950457
  11.87694167  5.87756183  2.39950457
   0.84866261  1.46799450  4.75979817
   3.39181759  0.01023119  4.75754217
   3.39313460  2.94070194  4.75886442
   5.93914731  1.47301991  4.76092849
   8.48779994  0.00546702  4.76329668
   8.48284018  2.94092628  4.75846825
   3.39509768  5.87295383  4.75972558
   5.93956711  4.40550740  4.75967775
   5.93005262  7.34109217  4.76080094
   8.47689440  5.87841957  4.75954844
  11.02461562  4.41232300  4.75136345
  11.00518653  7.35011343  4.74273933
  20.35356706  0.00438618  7.16878859
   2.54666826  1.47116436  7.17179556
   5.09546652  2.93766421  7.16624675
   5.09028320  0.00015943  7.16864638
   7.63866458  1.47007457  7.16629702
  10.18687366  2.94255878  7.15577262
   2.55013395  4.40100449  7.17065333
   5.09144364  5.87310892  7.16824981
   7.62641975  7.34484327  7.17488189
   7.64024791  4.40856042  7.17132794
  10.17796979  5.87964218  7.16920750
  12.71563639  7.35147368  7.07367245
  25.45058929  8.81634275  0.00000000
   7.63517679 10.28573321  0.00000000
  10.18023572 11.75512366  0.00000000
  10.18023572  8.81634275  0.00000000
  12.72529465 10.28573321  0.00000000
  15.27035358 11.75512366  0.00000000
  27.99564822 13.22451412  0.00000000
  10.18023572 14.69390458  0.00000000
  12.72529465 16.16329504  0.00000000
  12.72529465 13.22451412  0.00000000
  15.27035358 14.69390458  0.00000000
  17.81541251 16.16329504  0.00000000
   6.78682381  8.81634275  2.39950457
   6.78682381 11.75512366  2.39950457
   9.33188274 10.28573321  2.39950457
  11.87694167  8.81634275  2.39950457
  11.87694167 11.75512366  2.39950457
  14.42200060 10.28573321  2.39950457
   9.33188274 13.22451412  2.39950457
  29.69235418 16.16329504  2.39950457
  11.87694167 14.69390458  2.39950457
  14.42200060 13.22451412  2.39950457
  14.42200060 16.16329504  2.39950457
  16.96705953 14.69390458  2.39950457
  26.27989161 10.28443358  4.76063220
   8.45832128  8.81650484  4.75307571
   8.45049753 11.75725608  4.75204915
  10.99382495 10.29424858  4.74589613
  13.57616779  8.83074349  4.74430944
  13.55686345 11.77138608  4.73466115
  28.82250545 14.70201508  4.75876664
  10.99308915 13.23735616  4.73930809
  11.02177585 16.16677435  4.75742661
  13.57267702 14.72046910  4.74130185
  16.12025701 13.24663093  4.74073132
  16.12416448 16.17728613  4.75668342
  25.44374726  8.81133982  7.16668696
   7.61367972 10.28812490  7.17235817
  10.13052571 11.77945904  7.14653052
  10.14616237  8.81996083  7.14198777
  12.68495678 10.31099887  7.09768956
  15.26015364 11.77371944  7.08780738
  27.96293377 13.23508100  7.17051898
  10.15230427 14.71234201  7.16985533
  12.71631662 16.18059235  7.16587407
  12.67952896 13.25713888  7.07642033
  15.26007243 14.70322349  7.15742233
  17.81388197 16.16378501  7.17035884
  10.18023572  0.00000000  0.00000000
  12.72529465  1.46939046  0.00000000
  15.27035358  2.93878092  0.00000000
  15.27035358  0.00000000  0.00000000
  17.81541251  1.46939046  0.00000000
  20.36047144  2.93878092  0.00000000
  12.72529465  4.40817137  0.00000000
  15.27035358  5.87756183  0.00000000
  17.81541251  7.34695229  0.00000000
  17.81541251  4.40817137  0.00000000
  20.36047144  5.87756183  0.00000000
  22.90553036  7.34695229  0.00000000
  11.87694167  0.00000000  2.39950457
  11.87694167  2.93878092  2.39950457
  14.42200060  1.46939046  2.39950457
  16.96705953  0.00000000  2.39950457
  16.96705953  2.93878092  2.39950457
  19.51211846  1.46939046  2.39950457
  14.42200060  4.40817137  2.39950457
  14.42200060  7.34695229  2.39950457
  16.96705953  5.87756183  2.39950457
  19.51211846  4.40817137  2.39950457
  19.51211846  7.34695229  2.39950457
  22.05717739  5.87756183  2.39950457
  11.03188621  1.47224139  4.75716201
  23.75103383 17.63049777  4.75786456
  13.58279883  2.92826989  4.74879726
  16.12347703  1.46567711  4.75853498
  18.66297638  0.00183020  4.76057713
  18.66971925  2.93874972  4.76215695
  13.59085269  5.87305463  4.73133598
  16.12766173  4.40268341  4.75589177
  16.12650015  7.34744940  4.75744277
  18.67013778  5.87214357  4.75979734
  21.21352762  4.40284733  4.76011146
  21.21350929  7.33610230  4.75800185
  10.18119147  0.00498423  7.16948437
  12.72845597  1.47743130  7.16678505
  15.27925952  2.94757440  7.16860447
  15.26259514  0.00881821  7.16870266
  17.81397371  1.47211641  7.16532352
  20.36327716  2.93624998  7.16672408
  12.74723343  4.41281945  7.10068499
  15.28737322  5.89214897  7.15784039
  17.81608683  7.34294450  7.17308511
  17.81994683  4.40912347  7.17130002
  20.36351114  5.87070592  7.16883291
  22.90701788  7.33580879  7.16807970
  15.27035358  8.81634275  0.00000000
  17.81541251 10.28573321  0.00000000
  20.36047143 11.75512366  0.00000000
  20.36047144  8.81634275  0.00000000
  22.90553036 10.28573321  0.00000000
  25.45058929 11.75512366  0.00000000
  17.81541251 13.22451412  0.00000000
  20.36047144 14.69390458  0.00000000
  22.90553036 16.16329504  0.00000000
  22.90553036 13.22451412  0.00000000
  25.45058929 14.69390458  0.00000000
  27.99564822 16.16329504  0.00000000
  16.96705953  8.81634275  2.39950457
  16.96705953 11.75512366  2.39950457
  19.51211846 10.28573321  2.39950457
  22.05717739  8.81634275  2.39950457
  22.05717739 11.75512366  2.39950457
  24.60223632 10.28573321  2.39950457
  19.51211846 13.22451412  2.39950457
  19.51211846 16.16329504  2.39950457
  22.05717739 14.69390458  2.39950457
  24.60223632 13.22451412  2.39950457
  24.60223632 16.16329504  2.39950457
  27.14729525 14.69390458  2.39950457
  16.12708719 10.28586955  4.74639617
  18.67171843  8.80535265  4.75451628
  18.66685461 11.75919638  4.75153589
  21.21142207 10.27559991  4.74737039
  23.75154859  8.80802923  4.75912856
  23.74383589 11.75340367  4.75860409
  18.66939196 14.70140595  4.75585385
  21.21038260 13.23267650  4.74836622
  21.20942711 16.17014766  4.75947306
  23.74786008 14.69619227  4.75871686
  26.28083653 13.22977551  4.75964022
  26.29020972 16.16883595  4.76038024
  15.27544932  8.83217908  7.14888722
  17.82352064 10.27609548  7.12932831
  20.37352463 11.75264401  7.12083765
  20.36546426  8.80762620  7.16152939
  22.90547630 10.27976697  7.16604477
  25.43156677 11.75492875  7.16322118
  17.80588744 13.23136028  7.14297753
  20.35485647 14.69571115  7.16928769
  22.89579703 16.17185945  7.17300459
  22.89910231 13.23253686  7.16931660
  25.43050846 14.70047811  7.16505385
  27.97769539 16.17144389  7.16846585
  17.38733223  9.99400348 10.41328050
  17.76240853 12.25995876 10.36712695
  11.27643641  6.50834738 10.52544615
  13.03253423  5.04685690 10.32707804
  13.18081406 12.95247637 10.38089797
  13.25725677 11.45742733 10.29042632
  12.09835779 10.68400003 10.18007148
  12.11158418  9.28333939 10.15658463
  13.34688282  8.62325606 10.23248322
  14.53977529  9.36817322 10.27764622
  14.49550607 10.77127212 10.31241033
  16.96987450 11.14621791 10.38379612
  19.18110169 11.99593564 10.43994769
  12.46849679  6.29316530 10.37514979
  12.09427822  3.96065887 10.48034234
  15.65445640 11.55553546 10.35848037
  13.47153374  7.22640994 10.22568232
  11.13382141 11.19757082 10.11908710
  11.18590795  8.71388566 10.09978854
  15.50732547  8.86449776 10.32183049
  15.52623759 12.56496317 10.30793318
  14.40993339  6.85444253 10.09969555
  13.55773152 13.32524197 11.35019247
  12.14194088 13.29301959 10.26699528
  13.77050179 13.45305847  9.58732218
  19.66631197 12.95233166 10.21431824
  19.44724326 11.63950285 11.44615472
  19.46467683 11.23473382  9.69745178
  11.69701934  3.94023049 11.50718284
  11.26175576  4.07264618  9.76989833
  12.66622143  3.05013306 10.26046655
 


--------------------------------------------------------------------------------------------------------


 k-point  1 :   0.0000 0.0000 0.0000  plane waves:  155667
 k-point  2 :   0.3333 0.0000 0.0000  plane waves:  155683
 k-point  3 :   0.0000 0.3333 0.0000  plane waves:  155683
 k-point  4 :   0.3333 0.3333 0.0000  plane waves:  155683
 k-point  5 :  -0.3333 0.3333 0.0000  plane waves:  155607

 maximum and minimum number of plane-waves per node :     38947    38880

 maximum number of plane-waves:    155683
 maximum index in each direction: 
   IXMAX=   35   IYMAX=   35   IZMAX=   34
   IXMIN=  -35   IYMIN=  -35   IZMIN=  -34


 real space projection operators:
  total allocation   :      57809.46 KBytes
  max/ min on nodes  :      14457.27      14447.09


 parallel 3D FFT for wavefunctions:
    minimum data exchange during FFTs selected (reduces bandwidth)
 parallel 3D FFT for charge:
    minimum data exchange during FFTs selected (reduces bandwidth)


 total amount of memory used by VASP MPI-rank0   459644. kBytes
=======================================================================

   base      :      30000. kBytes
   nonlr-proj:      25908. kBytes
   fftplans  :      17430. kBytes
   grid      :      31444. kBytes
   one-center:        870. kBytes
   wavefun   :     353992. kBytes
 
     INWAV:  cpu time    0.0000: real time    0.0002
 Broyden mixing: mesh for mixing (old mesh)
   NGX = 71   NGY = 71   NGZ = 69
  (NGX  =216   NGY  =216   NGZ  =216)
  gives a total of 347829 points

 initial charge density was supplied:
 charge density of overlapping atoms calculated
 number of electron    2204.0000000 magnetization 
 keeping initial charge density in first step


--------------------------------------------------------------------------------------------------------


 Maximum index for non-local projection operator          540
 Maximum index for augmentation-charges          527 (set IRDMAX)


--------------------------------------------------------------------------------------------------------


 First call to EWALD:  gamma=   0.092
 Maximum number of real-space cells 3x 3x 3
 Maximum number of reciprocal cells 3x 3x 3

    FEWALD:  cpu time    0.0109: real time    0.0109


--------------------------------------- Iteration      1(   1)  ---------------------------------------


    POTLOK:  cpu time    0.1899: real time    0.2014
    SETDIJ:  cpu time    0.0311: real time    0.0396
     EDDAV:  cpu time  156.7697: real time  156.8775
       DOS:  cpu time    0.0019: real time    0.0019
    --------------------------------------------
      LOOP:  cpu time  156.9926: real time  157.1204

 eigenvalue-minimisations  : 13344
 total energy-change (2. order) : 0.1400119E+05  (-0.9574925E+05)
 number of electron    2204.0000000 magnetization 
 augmentation part     2204.0000000 magnetization 

 DIPCOR: dipole corrections for dipol
 direction  3 min pos   156,
 dipolmoment           0.000000      0.000000     -0.026266 electrons x Angstroem
 Tr[quadrupol]   -159356.387273

 energy correction for charged system         0.000000 eV
 dipol+quadrupol energy correction           -0.000009 eV
 added-field ion interaction         -0.767585 eV  (added to PSCEN)


 Free energy of the ion-electron system (eV)
  ---------------------------------------------------
  alpha Z        PSCENC =      6361.41451258
  Ewald energy   TEWEN  =    327596.62587167
  -Hartree energ DENC   =   -520786.55097401
  -exchange      EXHF   =         0.00000000
  -V(xc)+E(xc)   XCENC  =      3262.53495843
  PAW double counting   =    170846.40290881  -166429.59255500
  entropy T*S    EENTRO =        -0.03529028
  eigenvalues    EBANDS =     11291.07135192
  atomic energy  EATOM  =    181859.31559115
  Solvation  Ediel_sol  =         0.00000000
  ---------------------------------------------------
  free energy    TOTEN  =     14001.18637528 eV

  energy without entropy =    14001.22166556  energy(sigma->0) =    14001.20402042


--------------------------------------------------------------------------------------------------------




--------------------------------------- Iteration      1(   2)  ---------------------------------------


     EDDAV:  cpu time  171.4795: real time  171.5734
       DOS:  cpu time    0.0020: real time    0.0020
    --------------------------------------------
      LOOP:  cpu time  171.4815: real time  171.5754

 eigenvalue-minimisations  : 14892
 total energy-change (2. order) :-0.1397158E+05  (-0.1299279E+05)
 number of electron    2204.0000000 magnetization 
 augmentation part     2204.0000000 magnetization 

 DIPCOR: dipole corrections for dipol
 direction  3 min pos   156,
 dipolmoment           0.000000      0.000000     -0.026266 electrons x Angstroem
 Tr[quadrupol]   -159356.387273

 energy correction for charged system         0.000000 eV
 dipol+quadrupol energy correction           -0.000009 eV
 added-field ion interaction         -0.767585 eV  (added to PSCEN)


 Free energy of the ion-electron system (eV)
  ---------------------------------------------------
  alpha Z        PSCENC =      6361.41451258
  Ewald energy   TEWEN  =    327596.62587167
  -Hartree energ DENC   =   -520786.55097401
  -exchange      EXHF   =         0.00000000
  -V(xc)+E(xc)   XCENC  =      3262.53495843
  PAW double counting   =    170846.40290881  -166429.59255500
  entropy T*S    EENTRO =        -0.02952813
  eigenvalues    EBANDS =     -2680.51651327
  atomic energy  EATOM  =    181859.31559115
  Solvation  Ediel_sol  =         0.00000000
  ---------------------------------------------------
  free energy    TOTEN  =        29.60427224 eV

  energy without entropy =       29.63380037  energy(sigma->0) =       29.61903630


--------------------------------------------------------------------------------------------------------




--------------------------------------- Iteration      1(   3)  ---------------------------------------


     EDDAV:  cpu time  173.5197: real time  173.6307
       DOS:  cpu time    0.0019: real time    0.0019
    --------------------------------------------
      LOOP:  cpu time  173.5216: real time  173.6334

 eigenvalue-minimisations  : 15084
 total energy-change (2. order) :-0.8546563E+03  (-0.8169044E+03)
 number of electron    2204.0000000 magnetization 
 augmentation part     2204.0000000 magnetization 

 DIPCOR: dipole corrections for dipol
 direction  3 min pos   156,
 dipolmoment           0.000000      0.000000     -0.026266 electrons x Angstroem
 Tr[quadrupol]   -159356.387273

 energy correction for charged system         0.000000 eV
 dipol+quadrupol energy correction           -0.000009 eV
 added-field ion interaction         -0.767585 eV  (added to PSCEN)


 Free energy of the ion-electron system (eV)
  ---------------------------------------------------
  alpha Z        PSCENC =      6361.41451258
  Ewald energy   TEWEN  =    327596.62587167
  -Hartree energ DENC   =   -520786.55097401
  -exchange      EXHF   =         0.00000000
  -V(xc)+E(xc)   XCENC  =      3262.53495843
  PAW double counting   =    170846.40290881  -166429.59255500
  entropy T*S    EENTRO =        -0.05127100
  eigenvalues    EBANDS =     -3535.15106031
  atomic energy  EATOM  =    181859.31559115
  Solvation  Ediel_sol  =         0.00000000
  ---------------------------------------------------
  free energy    TOTEN  =      -825.05201768 eV

  energy without entropy =     -825.00074667  energy(sigma->0) =     -825.02638218


--------------------------------------------------------------------------------------------------------




--------------------------------------- Iteration      1(   4)  ---------------------------------------


     EDDAV:  cpu time  177.5218: real time  177.6058
       DOS:  cpu time    0.0020: real time    0.0020
    --------------------------------------------
      LOOP:  cpu time  177.5238: real time  177.6070

 eigenvalue-minimisations  : 15504
 total energy-change (2. order) :-0.2529629E+02  (-0.2495091E+02)
 number of electron    2204.0000000 magnetization 
 augmentation part     2204.0000000 magnetization 

 DIPCOR: dipole corrections for dipol
 direction  3 min pos   156,
 dipolmoment           0.000000      0.000000     -0.026266 electrons x Angstroem
 Tr[quadrupol]   -159356.387273

 energy correction for charged system         0.000000 eV
 dipol+quadrupol energy correction           -0.000009 eV
 added-field ion interaction         -0.767585 eV  (added to PSCEN)


 Free energy of the ion-electron system (eV)
  ---------------------------------------------------
  alpha Z        PSCENC =      6361.41451258
  Ewald energy   TEWEN  =    327596.62587167
  -Hartree energ DENC   =   -520786.55097401
  -exchange      EXHF   =         0.00000000
  -V(xc)+E(xc)   XCENC  =      3262.53495843
  PAW double counting   =    170846.40290881  -166429.59255500
  entropy T*S    EENTRO =        -0.05072292
  eigenvalues    EBANDS =     -3560.44790281
  atomic energy  EATOM  =    181859.31559115
  Solvation  Ediel_sol  =         0.00000000
  ---------------------------------------------------
  free energy    TOTEN  =      -850.34831209 eV

  energy without entropy =     -850.29758917  energy(sigma->0) =     -850.32295063


--------------------------------------------------------------------------------------------------------




--------------------------------------- Iteration      1(   5)  ---------------------------------------


     EDDAV:  cpu time  182.8483: real time  182.9342
       DOS:  cpu time    0.0020: real time    0.0020
    --------------------------------------------
      LOOP:  cpu time  182.8503: real time  182.9362

 eigenvalue-minimisations  : 16116
 total energy-change (2. order) :-0.9466624E+00  (-0.9435812E+00)
 number of electron    2204.0000000 magnetization 
 augmentation part     2204.0000000 magnetization 

 DIPCOR: dipole corrections for dipol
 direction  3 min pos   156,
 dipolmoment           0.000000      0.000000     -0.026266 electrons x Angstroem
 Tr[quadrupol]   -159356.387273

 energy correction for charged system         0.000000 eV
 dipol+quadrupol energy correction           -0.000009 eV
 added-field ion interaction         -0.767585 eV  (added to PSCEN)


 Free energy of the ion-electron system (eV)
  ---------------------------------------------------
  alpha Z        PSCENC =      6361.41451258
  Ewald energy   TEWEN  =    327596.62587167
  -Hartree energ DENC   =   -520786.55097401
  -exchange      EXHF   =         0.00000000
  -V(xc)+E(xc)   XCENC  =      3262.53495843
  PAW double counting   =    170846.40290881  -166429.59255500
  entropy T*S    EENTRO =        -0.05070710
  eigenvalues    EBANDS =     -3561.39458102
  atomic energy  EATOM  =    181859.31559115
  Solvation  Ediel_sol  =         0.00000000
  ---------------------------------------------------
  free energy    TOTEN  =      -851.29497448 eV

  energy without entropy =     -851.24426738  energy(sigma->0) =     -851.26962093


--------------------------------------------------------------------------------------------------------




--------------------------------------- Iteration      1(   6)  ---------------------------------------


     EDDAV:  cpu time  202.6628: real time  202.7719
       DOS:  cpu time    0.0020: real time    0.0020
    --------------------------------------------
      LOOP:  cpu time  202.6648: real time  202.7739

 eigenvalue-minimisations  : 18156
 total energy-change (2. order) :-0.4761760E-01  (-0.4758427E-01)
 number of electron    2204.0000000 magnetization 
 augmentation part     2204.0000000 magnetization 

 DIPCOR: dipole corrections for dipol
 direction  3 min pos   156,
 dipolmoment           0.000000      0.000000     -0.026266 electrons x Angstroem
 Tr[quadrupol]   -159356.387273

 energy correction for charged system         0.000000 eV
 dipol+quadrupol energy correction           -0.000009 eV
 added-field ion interaction         -0.767585 eV  (added to PSCEN)


 Free energy of the ion-electron system (eV)
  ---------------------------------------------------
  alpha Z        PSCENC =      6361.41451258
  Ewald energy   TEWEN  =    327596.62587167
  -Hartree energ DENC   =   -520786.55097401
  -exchange      EXHF   =         0.00000000
[...]
 number of electron    2203.9997633 magnetization 
 augmentation part      778.1611000 magnetization 

 DIPCOR: dipole corrections for dipol
 direction  3 min pos   155,
 dipolmoment           0.000000      0.000000     -0.477699 electrons x Angstroem
 Tr[quadrupol]   -159434.606233

 energy correction for charged system         0.000000 eV
 dipol+quadrupol energy correction           -0.003075 eV
 added-field ion interaction        -11.084199 eV  (added to PSCEN)


 eigenvalues of (default mixing * dielectric matrix)
  average eigenvalue GAMMA=   1.5334
  1.0376  2.0291

  free energy =  -0.781442715883E+03  energy without entropy=  -0.781364324868E+03


--------------------------------------------------------------------------------------------------------




--------------------------------------- Iteration    104(   4)  ---------------------------------------


    POTLOK:  cpu time    0.2733: real time    0.2747
    SETDIJ:  cpu time    0.0175: real time    0.0175
    EDDIAG:  cpu time   28.5762: real time   28.6012
  RMM-DIIS:  cpu time   35.5473: real time   35.6819
    ORTHCH:  cpu time    9.0622: real time    9.0685
       DOS:  cpu time    0.0021: real time    0.0021
    CHARGE:  cpu time    7.0959: real time    7.0997
    MIXING:  cpu time    0.0065: real time    0.0065
    --------------------------------------------
      LOOP:  cpu time   80.5810: real time   80.7521

 eigenvalue-minimisations  :  7096
 total energy-change (2. order) :-0.6204064E-06  (-0.2432351E-06)
 number of electron    2203.9997633 magnetization 
 augmentation part      778.1610957 magnetization 

 DIPCOR: dipole corrections for dipol
 direction  3 min pos   155,
 dipolmoment           0.000000      0.000000     -0.478592 electrons x Angstroem
 Tr[quadrupol]   -159434.605417

 energy correction for charged system         0.000000 eV
 dipol+quadrupol energy correction           -0.003087 eV
 added-field ion interaction        -11.104930 eV  (added to PSCEN)


 eigenvalues of (default mixing * dielectric matrix)
  average eigenvalue GAMMA=   1.1977
  2.1808  1.0297  0.3826

  free energy =  -0.781442716504E+03  energy without entropy=  -0.781364326097E+03


--------------------------------------------------------------------------------------------------------




--------------------------------------- Iteration    104(   5)  ---------------------------------------


    POTLOK:  cpu time    0.1769: real time    0.1769
    SETDIJ:  cpu time    0.0182: real time    0.0182
    EDDIAG:  cpu time   28.6137: real time   28.6268
  RMM-DIIS:  cpu time   25.0094: real time   25.0679
    ORTHCH:  cpu time    9.0781: real time    9.0814
       DOS:  cpu time    0.0020: real time    0.0020
    --------------------------------------------
      LOOP:  cpu time   62.8983: real time   62.9734

 eigenvalue-minimisations  :  2389
 total energy-change (2. order) : 0.7462513E-06  (-0.4079565E-07)
 number of electron    2203.9997633 magnetization 
 augmentation part      778.1610957 magnetization 

 DIPCOR: dipole corrections for dipol
 direction  3 min pos   155,
 dipolmoment           0.000000      0.000000     -0.477625 electrons x Angstroem
 Tr[quadrupol]   -159434.606791

 energy correction for charged system         0.000000 eV
 dipol+quadrupol energy correction           -0.003074 eV
 added-field ion interaction        -11.082488 eV  (added to PSCEN)


  free energy =  -0.781442715757E+03  energy without entropy=  -0.781364325214E+03


--------------------------------------------------------------------------------------------------------




------------------------ aborting loop because EDIFF is reached ----------------------------------------


    CHARGE:  cpu time    7.0767: real time    7.0802
    FORLOC:  cpu time    0.2100: real time    0.2100
    FORNL :  cpu time   26.1627: real time   26.1759
    STRESS:  cpu time   78.6933: real time   78.7904
    FORCOR:  cpu time    0.3538: real time    0.3539
    FORHAR:  cpu time    0.2446: real time    0.2449
    MIXING:  cpu time    0.0063: real time    0.0063
    OFIELD:  cpu time    0.0001: real time    0.0001

  Number of pair interactions contributing to vdW energy:  918313
  Edisp (eV):  -17.89658
    FORVDW:  cpu time    0.1330: real time    0.1330

  FORCE on cell =-STRESS in cart. coord.  units (eV):
  Direction    XX          YY          ZZ          XY          YZ          ZX
  --------------------------------------------------------------------------------------
  Alpha Z  6362.18211  6362.18211  6362.18211
  Ewald  443918.37063444866.91470************  1594.74998    17.40129    59.89313
  Hartree494244.62418495098.94459************  1475.42648     6.91756    50.06842
  E(xc)   -9850.63538 -9850.50522 -9895.62323     0.07220     0.05373     0.01204
  Local  ************************997368.59653 -3076.46612   -23.78433  -110.74579
  n-local  -504.23949  -504.17647  -382.08902     2.98577    -0.24755     0.06595
  augment 13009.55823 13009.65046 13091.93508     0.11326     0.13934     0.02543
  Kinetic 30823.30561 30828.41844 31272.98110     2.99804    -0.66261     0.83689
  Fock        0.00000     0.00000     0.00000     0.00000     0.00000     0.00000
  vdW       -23.94926   -24.14074   -19.67197    -0.08124    -0.00285    -0.03702
  -------------------------------------------------------------------------------------
  Total    -124.38496  -124.83597    -2.71661    -0.20164    -0.18542     0.11904
  in kB     -27.75506   -27.85570    -0.60618    -0.04499    -0.04137     0.02656
  external pressure =      -18.74 kB  Pullay stress =        0.00 kB



--------------------------------------------------------------------------------------------------------



  FREE ENERGIE OF THE ION-ELECTRON SYSTEM (eV)
  ---------------------------------------------------
  free  energy   TOTEN  =      -799.33929959 eV

  energy  without entropy=     -799.26090905  energy(sigma->0) =     -799.30010432
 
 d Force = 0.4821980E-05[-0.254E-05, 0.122E-04]  d Energy = 0.1881165E-04-0.140E-04
 d Force = 0.2843911E+01[ 0.284E+01, 0.284E+01]  d Ewald  = 0.2843911E+01-0.466E-09


--------------------------------------------------------------------------------------------------------


    POTLOK:  cpu time    0.1963: real time    0.1963


--------------------------------------------------------------------------------------------------------




--------------------------------------------------------------------------------------------------------


    WAVPRE:  cpu time    0.1765: real time    0.1783
    FEWALD:  cpu time    0.0094: real time    0.0094

 real space projection operators:
  total allocation   :      57766.61 KBytes
  max/ min on nodes  :      14447.26      14436.21

    ORTHCH:  cpu time   17.6649: real time   17.6730
     LOOP+:  cpu time  626.0439: real time  626.6729


--------------------------------------- Iteration    105(   1)  ---------------------------------------


    POTLOK:  cpu time    0.1780: real time    0.1784
    SETDIJ:  cpu time    0.0180: real time    0.0180
     EDDAV:  cpu time  158.5206: real time  158.6590
       DOS:  cpu time    0.0021: real time    0.0021
    CHARGE:  cpu time    7.0901: real time    7.0946
    MIXING:  cpu time    0.0053: real time    0.0053
    --------------------------------------------
      LOOP:  cpu time  165.8142: real time  165.9574

 eigenvalue-minimisations  : 13320
 total energy-change (2. order) :-0.4882179E-03  (-0.1011481E-01)
 number of electron    2203.9997634 magnetization 
 augmentation part      778.1611432 magnetization 

 DIPCOR: dipole corrections for dipol
 direction  3 min pos   155,
 dipolmoment           0.000000      0.000000     -0.477973 electrons x Angstroem
 Tr[quadrupol]   -159433.590883

 energy correction for charged system         0.000000 eV
 dipol+quadrupol energy correction           -0.003079 eV
 added-field ion interaction        -11.089918 eV  (added to PSCEN)


  free energy =  -0.781443204721E+03  energy without entropy=  -0.781364811392E+03


--------------------------------------------------------------------------------------------------------




--------------------------------------- Iteration    105(   2)  ---------------------------------------


    POTLOK:  cpu time    0.1751: real time    0.1759
    SETDIJ:  cpu time    0.0177: real time    0.0177
    EDDIAG:  cpu time   28.6025: real time   28.6147
  RMM-DIIS:  cpu time   63.7004: real time   63.8069
    ORTHCH:  cpu time    9.0332: real time    9.0373
       DOS:  cpu time    0.0022: real time    0.0022
    CHARGE:  cpu time    7.0875: real time    7.1011
    MIXING:  cpu time    0.0061: real time    0.0061
    --------------------------------------------
      LOOP:  cpu time  108.6247: real time  108.7618

 eigenvalue-minimisations  : 13578
 total energy-change (2. order) :-0.1537575E-03  (-0.1711501E-03)
 number of electron    2203.9997634 magnetization 
 augmentation part      778.1609720 magnetization 

 DIPCOR: dipole corrections for dipol
 direction  3 min pos   155,
 dipolmoment           0.000000      0.000000     -0.477447 electrons x Angstroem
 Tr[quadrupol]   -159433.588626

 energy correction for charged system         0.000000 eV
 dipol+quadrupol energy correction           -0.003072 eV
 added-field ion interaction        -11.077703 eV  (added to PSCEN)


 eigenvalues of (default mixing * dielectric matrix)
  average eigenvalue GAMMA=   0.9608
  0.9608

  free energy =  -0.781443358479E+03  energy without entropy=  -0.781364968146E+03


--------------------------------------------------------------------------------------------------------




--------------------------------------- Iteration    105(   3)  ---------------------------------------


    POTLOK:  cpu time    0.1786: real time    0.1803
    SETDIJ:  cpu time    0.0178: real time    0.0178
    EDDIAG:  cpu time   28.6358: real time   28.6477
  RMM-DIIS:  cpu time   42.4107: real time   42.4472
    ORTHCH:  cpu time    9.0256: real time    9.0305
       DOS:  cpu time    0.0023: real time    0.0023
    CHARGE:  cpu time    7.0935: real time    7.0966
    MIXING:  cpu time    0.0061: real time    0.0061
    --------------------------------------------
      LOOP:  cpu time   87.3704: real time   87.4286

 eigenvalue-minimisations  :  8609
 total energy-change (2. order) : 0.1355261E-04  (-0.5577523E-05)
 number of electron    2203.9997634 magnetization 
 augmentation part      778.1609697 magnetization 

 DIPCOR: dipole corrections for dipol
 direction  3 min pos   155,
 dipolmoment           0.000000      0.000000     -0.478447 electrons x Angstroem
 Tr[quadrupol]   -159433.586194

 energy correction for charged system         0.000000 eV
 dipol+quadrupol energy correction           -0.003085 eV
 added-field ion interaction        -11.100924 eV  (added to PSCEN)


 eigenvalues of (default mixing * dielectric matrix)
  average eigenvalue GAMMA=   1.4720
  1.0496  1.8944

  free energy =  -0.781443344926E+03  energy without entropy=  -0.781364951523E+03


--------------------------------------------------------------------------------------------------------




--------------------------------------- Iteration    105(   4)  ---------------------------------------


    POTLOK:  cpu time    0.1765: real time    0.1767
    SETDIJ:  cpu time    0.0181: real time    0.0181
    EDDIAG:  cpu time   28.6591: real time   28.6768
  RMM-DIIS:  cpu time   41.1173: real time   41.1356
    ORTHCH:  cpu time    9.0336: real time    9.0401
       DOS:  cpu time    0.0022: real time    0.0022
    CHARGE:  cpu time    7.1367: real time    7.1405
    MIXING:  cpu time    0.0064: real time    0.0064
    --------------------------------------------
      LOOP:  cpu time   86.1500: real time   86.1964

 eigenvalue-minimisations  :  8402
 total energy-change (2. order) :-0.2003531E-04  (-0.3033874E-05)
 number of electron    2203.9997634 magnetization 
 augmentation part      778.1610523 magnetization 

 DIPCOR: dipole corrections for dipol
 direction  3 min pos   155,
 dipolmoment           0.000000      0.000000     -0.473248 electrons x Angstroem
 Tr[quadrupol]   -159433.591222

 energy correction for charged system         0.000000 eV
 dipol+quadrupol energy correction           -0.003018 eV
 added-field ion interaction        -10.980281 eV  (added to PSCEN)


 eigenvalues of (default mixing * dielectric matrix)
  average eigenvalue GAMMA=   1.1920
  2.2634  1.0423  0.2702

  free energy =  -0.781443364962E+03  energy without entropy=  -0.781364974166E+03


--------------------------------------------------------------------------------------------------------




--------------------------------------- Iteration    105(   5)  ---------------------------------------


    POTLOK:  cpu time    0.1752: real time    0.1765
    SETDIJ:  cpu time    0.0182: real time    0.0182
    EDDIAG:  cpu time   28.6925: real time   28.7056
  RMM-DIIS:  cpu time   37.5139: real time   37.5330
    ORTHCH:  cpu time    9.0498: real time    9.0543
       DOS:  cpu time    0.0024: real time    0.0024
    CHARGE:  cpu time    7.0907: real time    7.0935
    MIXING:  cpu time    0.0066: real time    0.0066
    --------------------------------------------
      LOOP:  cpu time   82.5493: real time   82.5901

 eigenvalue-minimisations  :  7511
 total energy-change (2. order) : 0.2315856E-04  (-0.1306735E-05)
 number of electron    2203.9997634 magnetization 
 augmentation part      778.1610143 magnetization 

 DIPCOR: dipole corrections for dipol
 direction  3 min pos   155,
 dipolmoment           0.000000      0.000000     -0.477616 electrons x Angstroem
 Tr[quadrupol]   -159433.585313

 energy correction for charged system         0.000000 eV
 dipol+quadrupol energy correction           -0.003074 eV
 added-field ion interaction        -11.081623 eV  (added to PSCEN)


 eigenvalues of (default mixing * dielectric matrix)
  average eigenvalue GAMMA=   1.1426
  2.2740  1.0231  1.0231  0.2503

  free energy =  -0.781443341803E+03  energy without entropy=  -0.781364950544E+03


--------------------------------------------------------------------------------------------------------




--------------------------------------- Iteration    105(   6)  ---------------------------------------


    POTLOK:  cpu time    0.1753: real time    0.1768
    SETDIJ:  cpu time    0.0181: real time    0.0181
    EDDIAG:  cpu time   28.6956: real time   28.7095
  RMM-DIIS:  cpu time   35.7727: real time   35.7975
    ORTHCH:  cpu time    9.0299: real time    9.0336
       DOS:  cpu time    0.0019: real time    0.0019
    --------------------------------------------
      LOOP:  cpu time   73.6934: real time   73.7374

 eigenvalue-minimisations  :  6991
 total energy-change (2. order) : 0.1345761E-06  (-0.1692239E-06)
 number of electron    2203.9997634 magnetization 
 augmentation part      778.1610143 magnetization 

 DIPCOR: dipole corrections for dipol
 direction  3 min pos   155,
 dipolmoment           0.000000      0.000000     -0.477476 electrons x Angstroem
 Tr[quadrupol]   -159433.585942

 energy correction for charged system         0.000000 eV
 dipol+quadrupol energy correction           -0.003072 eV
 added-field ion interaction        -11.078376 eV  (added to PSCEN)


  free energy =  -0.781443341668E+03  energy without entropy=  -0.781364947986E+03


--------------------------------------------------------------------------------------------------------




------------------------ aborting loop because EDIFF is reached ----------------------------------------


    CHARGE:  cpu time    7.0777: real time    7.0885
    FORLOC:  cpu time    0.2090: real time    0.2090
    FORNL :  cpu time   26.1417: real time   26.2467
    STRESS:  cpu time   78.1746: real time   78.3478
    FORCOR:  cpu time    0.3552: real time    0.3555
    FORHAR:  cpu time    0.2451: real time    0.2451
    MIXING:  cpu time    0.0066: real time    0.0066
    OFIELD:  cpu time    0.0001: real time    0.0001

  Number of pair interactions contributing to vdW energy:  918306
  Edisp (eV):  -17.89619
    FORVDW:  cpu time    0.1331: real time    0.1332

  FORCE on cell =-STRESS in cart. coord.  units (eV):
  Direction    XX          YY          ZZ          XY          YZ          ZX
  --------------------------------------------------------------------------------------
  Alpha Z  6362.18211  6362.18211  6362.18211
  Ewald  443908.80832444858.15612************  1594.32476    17.44263    59.85740
  Hartree494235.17900495089.83458************  1475.00727     6.93846    50.11944
  E(xc)   -9850.63038 -9850.49840 -9895.61960     0.07221     0.05371     0.01173
  Local  ************************997350.07005 -3075.60000   -23.84221  -110.76836
  n-local  -504.23412  -504.17737  -382.08298     2.98050    -0.24270     0.07173
  augment 13009.55802 13009.64662 13091.94062     0.11555     0.13739     0.02886
  Kinetic 30823.31074 30828.34062 31272.97857     3.00850    -0.66562     0.83498
  Fock        0.00000     0.00000     0.00000     0.00000     0.00000     0.00000
  vdW       -23.94896   -24.14063   -19.67159    -0.08123    -0.00301    -0.03669
  -------------------------------------------------------------------------------------
  Total    -124.38565  -124.86524    -2.75501    -0.17245    -0.18136     0.11908
  in kB     -27.75521   -27.86223    -0.61475    -0.03848    -0.04047     0.02657
  external pressure =      -18.74 kB  Pullay stress =        0.00 kB



--------------------------------------------------------------------------------------------------------



  FREE ENERGIE OF THE ION-ELECTRON SYSTEM (eV)
  ---------------------------------------------------
  free  energy   TOTEN  =      -799.33952866 eV

  energy  without entropy=     -799.26113498  energy(sigma->0) =     -799.30033182
 
 d Force = 0.1830151E-03[ 0.773E-04, 0.289E-03]  d Energy = 0.2290704E-03-0.461E-04
 d Force = 0.9158952E+01[ 0.916E+01, 0.916E+01]  d Ewald  = 0.9158952E+01-0.163E-06


--------------------------------------------------------------------------------------------------------


    POTLOK:  cpu time    0.1966: real time    0.1966


--------------------------------------------------------------------------------------------------------


 Conjugate gradient step on ions:
 trial-energy change:   -0.000229  1 .order   -0.000183   -0.000289   -0.000077
  (g-gl).g = 0.172E-03      g.g   = 0.212E-03  gl.gl    = 0.200E-03
 g(Force)  = 0.212E-03   g(Stress)= 0.000E+00 ortho     =-0.678E-05
 gamma     =   0.85911
 trial     =   1.40193
 opt step  =   1.60708  (harmonic =   1.91443) maximal distance =0.00202344
 next E    =  -799.339534   (d E  =  -0.00023)


--------------------------------------------------------------------------------------------------------


  
 reached required accuracy - stopping structural energy minimisation
     LOOP+:  cpu time  716.7793: real time  717.5563
    4ORBIT:  cpu time    0.0000: real time    0.0000

 total amount of memory used by VASP MPI-rank0   459644. kBytes
=======================================================================

   base      :      30000. kBytes
   nonlr-proj:      25908. kBytes
   fftplans  :      17430. kBytes
   grid      :      31444. kBytes
   one-center:        870. kBytes
   wavefun   :     353992. kBytes
 
  
  
 General timing and accounting informations for this job:
 ========================================================
  
                  Total CPU time used (sec):    81478.453
                            User time (sec):    79043.340
                          System time (sec):     2435.117
                         Elapsed time (sec):    81571.698
  
                   Maximum memory used (kb):      678784.
                   Average memory used (kb):           0.
  
                          Minor page faults:       468868
                          Major page faults:            0
                 Voluntary context switches:        10048
